+ 1 1 2 cbr 1500 ------- 0 1.0 3.0 0 0
- 1 1 2 cbr 1500 ------- 0 1.0 3.0 0 0
+ 1 1 0 cbr 1500 ------- 0 1.2 10.0 0 1
- 1 1 0 cbr 1500 ------- 0 1.2 10.0 0 1
+ 1 4 5 cbr 2000 ------- 0 4.0 6.0 0 2
- 1 4 5 cbr 2000 ------- 0 4.0 6.0 0 2
+ 1 7 8 cbr 2000 ------- 0 7.0 9.1 0 3
- 1 7 8 cbr 2000 ------- 0 7.0 9.1 0 3
+ 1 11 10 cbr 2000 ------- 0 11.0 9.0 0 4
- 1 11 10 cbr 2000 ------- 0 11.0 9.0 0 4
+ 1 13 14 cbr 2000 ------- 0 13.0 8.0 0 5
- 1 13 14 cbr 2000 ------- 0 13.0 8.0 0 5
+ 1 0 11 cbr 2000 ------- 0 0.0 9.2 0 6
- 1 0 11 cbr 2000 ------- 0 0.0 9.2 0 6
+ 1 12 13 cbr 2000 ------- 0 12.0 7.1 0 7
- 1 12 13 cbr 2000 ------- 0 12.0 7.1 0 7
+ 1 2 3 cbr 2000 ------- 0 2.0 4.1 0 8
- 1 2 3 cbr 2000 ------- 0 2.0 4.1 0 8
+ 1 3 4 cbr 2000 ------- 0 3.1 5.0 0 9
- 1 3 4 cbr 2000 ------- 0 3.1 5.0 0 9
+ 1.0024 1 2 cbr 1500 ------- 0 1.0 3.0 1 10
- 1.0024 1 2 cbr 1500 ------- 0 1.0 3.0 1 10
+ 1.0024 1 0 cbr 1500 ------- 0 1.2 10.0 1 11
- 1.0024 1 0 cbr 1500 ------- 0 1.2 10.0 1 11
+ 1.0032 4 5 cbr 2000 ------- 0 4.0 6.0 1 12
- 1.0032 4 5 cbr 2000 ------- 0 4.0 6.0 1 12
+ 1.0032 7 8 cbr 2000 ------- 0 7.0 9.1 1 13
- 1.0032 7 8 cbr 2000 ------- 0 7.0 9.1 1 13
+ 1.0032 11 10 cbr 2000 ------- 0 11.0 9.0 1 14
- 1.0032 11 10 cbr 2000 ------- 0 11.0 9.0 1 14
+ 1.0032 13 14 cbr 2000 ------- 0 13.0 8.0 1 15
- 1.0032 13 14 cbr 2000 ------- 0 13.0 8.0 1 15
+ 1.0032 0 11 cbr 2000 ------- 0 0.0 9.2 1 16
- 1.0032 0 11 cbr 2000 ------- 0 0.0 9.2 1 16
+ 1.0032 12 13 cbr 2000 ------- 0 12.0 7.1 1 17
- 1.0032 12 13 cbr 2000 ------- 0 12.0 7.1 1 17
+ 1.0032 2 3 cbr 2000 ------- 0 2.0 4.1 1 18
- 1.0032 2 3 cbr 2000 ------- 0 2.0 4.1 1 18
+ 1.0032 3 4 cbr 2000 ------- 0 3.1 5.0 1 19
- 1.0032 3 4 cbr 2000 ------- 0 3.1 5.0 1 19
+ 1.0048 1 2 cbr 1500 ------- 0 1.0 3.0 2 20
- 1.0048 1 2 cbr 1500 ------- 0 1.0 3.0 2 20
+ 1.0048 1 0 cbr 1500 ------- 0 1.2 10.0 2 21
- 1.0048 1 0 cbr 1500 ------- 0 1.2 10.0 2 21
+ 1.0064 4 5 cbr 2000 ------- 0 4.0 6.0 2 22
- 1.0064 4 5 cbr 2000 ------- 0 4.0 6.0 2 22
+ 1.0064 7 8 cbr 2000 ------- 0 7.0 9.1 2 23
- 1.0064 7 8 cbr 2000 ------- 0 7.0 9.1 2 23
+ 1.0064 11 10 cbr 2000 ------- 0 11.0 9.0 2 24
- 1.0064 11 10 cbr 2000 ------- 0 11.0 9.0 2 24
+ 1.0064 13 14 cbr 2000 ------- 0 13.0 8.0 2 25
- 1.0064 13 14 cbr 2000 ------- 0 13.0 8.0 2 25
+ 1.0064 0 11 cbr 2000 ------- 0 0.0 9.2 2 26
- 1.0064 0 11 cbr 2000 ------- 0 0.0 9.2 2 26
+ 1.0064 12 13 cbr 2000 ------- 0 12.0 7.1 2 27
- 1.0064 12 13 cbr 2000 ------- 0 12.0 7.1 2 27
+ 1.0064 2 3 cbr 2000 ------- 0 2.0 4.1 2 28
- 1.0064 2 3 cbr 2000 ------- 0 2.0 4.1 2 28
+ 1.0064 3 4 cbr 2000 ------- 0 3.1 5.0 2 29
- 1.0064 3 4 cbr 2000 ------- 0 3.1 5.0 2 29
+ 1.0072 1 2 cbr 1500 ------- 0 1.0 3.0 3 30
- 1.0072 1 2 cbr 1500 ------- 0 1.0 3.0 3 30
+ 1.0072 1 0 cbr 1500 ------- 0 1.2 10.0 3 31
- 1.0072 1 0 cbr 1500 ------- 0 1.2 10.0 3 31
+ 1.0096 1 2 cbr 1500 ------- 0 1.0 3.0 4 32
- 1.0096 1 2 cbr 1500 ------- 0 1.0 3.0 4 32
+ 1.0096 1 0 cbr 1500 ------- 0 1.2 10.0 4 33
- 1.0096 1 0 cbr 1500 ------- 0 1.2 10.0 4 33
+ 1.0096 4 5 cbr 2000 ------- 0 4.0 6.0 3 34
- 1.0096 4 5 cbr 2000 ------- 0 4.0 6.0 3 34
+ 1.0096 7 8 cbr 2000 ------- 0 7.0 9.1 3 35
- 1.0096 7 8 cbr 2000 ------- 0 7.0 9.1 3 35
+ 1.0096 11 10 cbr 2000 ------- 0 11.0 9.0 3 36
- 1.0096 11 10 cbr 2000 ------- 0 11.0 9.0 3 36
+ 1.0096 13 14 cbr 2000 ------- 0 13.0 8.0 3 37
- 1.0096 13 14 cbr 2000 ------- 0 13.0 8.0 3 37
+ 1.0096 0 11 cbr 2000 ------- 0 0.0 9.2 3 38
- 1.0096 0 11 cbr 2000 ------- 0 0.0 9.2 3 38
+ 1.0096 12 13 cbr 2000 ------- 0 12.0 7.1 3 39
- 1.0096 12 13 cbr 2000 ------- 0 12.0 7.1 3 39
+ 1.0096 2 3 cbr 2000 ------- 0 2.0 4.1 3 40
- 1.0096 2 3 cbr 2000 ------- 0 2.0 4.1 3 40
+ 1.0096 3 4 cbr 2000 ------- 0 3.1 5.0 3 41
- 1.0096 3 4 cbr 2000 ------- 0 3.1 5.0 3 41
r 1.0112 1 2 cbr 1500 ------- 0 1.0 3.0 0 0
+ 1.0112 2 3 cbr 1500 ------- 0 1.0 3.0 0 0
r 1.0112 1 0 cbr 1500 ------- 0 1.2 10.0 0 1
+ 1.0112 0 11 cbr 1500 ------- 0 1.2 10.0 0 1
- 1.0112 0 11 cbr 1500 ------- 0 1.2 10.0 0 1
- 1.0112 2 3 cbr 1500 ------- 0 1.0 3.0 0 0
r 1.0116 11 10 cbr 2000 ------- 0 11.0 9.0 0 4
+ 1.0116 10 9 cbr 2000 ------- 0 11.0 9.0 0 4
- 1.0116 10 9 cbr 2000 ------- 0 11.0 9.0 0 4
+ 1.012 1 2 cbr 1500 ------- 0 1.0 3.0 5 42
- 1.012 1 2 cbr 1500 ------- 0 1.0 3.0 5 42
+ 1.012 1 0 cbr 1500 ------- 0 1.2 10.0 5 43
- 1.012 1 0 cbr 1500 ------- 0 1.2 10.0 5 43
+ 1.0128 4 5 cbr 2000 ------- 0 4.0 6.0 4 44
- 1.0128 4 5 cbr 2000 ------- 0 4.0 6.0 4 44
+ 1.0128 7 8 cbr 2000 ------- 0 7.0 9.1 4 45
- 1.0128 7 8 cbr 2000 ------- 0 7.0 9.1 4 45
+ 1.0128 11 10 cbr 2000 ------- 0 11.0 9.0 4 46
- 1.0128 11 10 cbr 2000 ------- 0 11.0 9.0 4 46
+ 1.0128 13 14 cbr 2000 ------- 0 13.0 8.0 4 47
- 1.0128 13 14 cbr 2000 ------- 0 13.0 8.0 4 47
+ 1.0128 0 11 cbr 2000 ------- 0 0.0 9.2 4 48
- 1.0128 0 11 cbr 2000 ------- 0 0.0 9.2 4 48
+ 1.0128 12 13 cbr 2000 ------- 0 12.0 7.1 4 49
- 1.0128 12 13 cbr 2000 ------- 0 12.0 7.1 4 49
+ 1.0128 2 3 cbr 2000 ------- 0 2.0 4.1 4 50
- 1.0128 2 3 cbr 2000 ------- 0 2.0 4.1 4 50
+ 1.0128 3 4 cbr 2000 ------- 0 3.1 5.0 4 51
- 1.0128 3 4 cbr 2000 ------- 0 3.1 5.0 4 51
r 1.0136 1 2 cbr 1500 ------- 0 1.0 3.0 1 10
+ 1.0136 2 3 cbr 1500 ------- 0 1.0 3.0 1 10
r 1.0136 1 0 cbr 1500 ------- 0 1.2 10.0 1 11
+ 1.0136 0 11 cbr 1500 ------- 0 1.2 10.0 1 11
+ 1.0144 1 2 cbr 1500 ------- 0 1.0 3.0 6 52
- 1.0144 1 2 cbr 1500 ------- 0 1.0 3.0 6 52
+ 1.0144 1 0 cbr 1500 ------- 0 1.2 10.0 6 53
- 1.0144 1 0 cbr 1500 ------- 0 1.2 10.0 6 53
- 1.0144 0 11 cbr 1500 ------- 0 1.2 10.0 1 11
- 1.0144 2 3 cbr 1500 ------- 0 1.0 3.0 1 10
r 1.0148 11 10 cbr 2000 ------- 0 11.0 9.0 1 14
+ 1.0148 10 9 cbr 2000 ------- 0 11.0 9.0 1 14
- 1.0148 10 9 cbr 2000 ------- 0 11.0 9.0 1 14
r 1.016 1 2 cbr 1500 ------- 0 1.0 3.0 2 20
+ 1.016 2 3 cbr 1500 ------- 0 1.0 3.0 2 20
- 1.016 2 3 cbr 1500 ------- 0 1.0 3.0 2 20
r 1.016 1 0 cbr 1500 ------- 0 1.2 10.0 2 21
+ 1.016 0 11 cbr 1500 ------- 0 1.2 10.0 2 21
- 1.016 0 11 cbr 1500 ------- 0 1.2 10.0 2 21
+ 1.016 4 5 cbr 2000 ------- 0 4.0 6.0 5 54
- 1.016 4 5 cbr 2000 ------- 0 4.0 6.0 5 54
+ 1.016 7 8 cbr 2000 ------- 0 7.0 9.1 5 55
- 1.016 7 8 cbr 2000 ------- 0 7.0 9.1 5 55
+ 1.016 11 10 cbr 2000 ------- 0 11.0 9.0 5 56
- 1.016 11 10 cbr 2000 ------- 0 11.0 9.0 5 56
+ 1.016 13 14 cbr 2000 ------- 0 13.0 8.0 5 57
- 1.016 13 14 cbr 2000 ------- 0 13.0 8.0 5 57
+ 1.016 0 11 cbr 2000 ------- 0 0.0 9.2 5 58
+ 1.016 12 13 cbr 2000 ------- 0 12.0 7.1 5 59
- 1.016 12 13 cbr 2000 ------- 0 12.0 7.1 5 59
+ 1.016 2 3 cbr 2000 ------- 0 2.0 4.1 5 60
+ 1.016 3 4 cbr 2000 ------- 0 3.1 5.0 5 61
- 1.016 3 4 cbr 2000 ------- 0 3.1 5.0 5 61
+ 1.0168 1 2 cbr 1500 ------- 0 1.0 3.0 7 62
- 1.0168 1 2 cbr 1500 ------- 0 1.0 3.0 7 62
+ 1.0168 1 0 cbr 1500 ------- 0 1.2 10.0 7 63
- 1.0168 1 0 cbr 1500 ------- 0 1.2 10.0 7 63
- 1.0172 2 3 cbr 2000 ------- 0 2.0 4.1 5 60
- 1.0172 0 11 cbr 2000 ------- 0 0.0 9.2 5 58
r 1.018 11 10 cbr 2000 ------- 0 11.0 9.0 2 24
+ 1.018 10 9 cbr 2000 ------- 0 11.0 9.0 2 24
- 1.018 10 9 cbr 2000 ------- 0 11.0 9.0 2 24
r 1.0184 1 2 cbr 1500 ------- 0 1.0 3.0 3 30
+ 1.0184 2 3 cbr 1500 ------- 0 1.0 3.0 3 30
r 1.0184 1 0 cbr 1500 ------- 0 1.2 10.0 3 31
+ 1.0184 0 11 cbr 1500 ------- 0 1.2 10.0 3 31
- 1.0188 2 3 cbr 1500 ------- 0 1.0 3.0 3 30
- 1.0188 0 11 cbr 1500 ------- 0 1.2 10.0 3 31
+ 1.0192 1 2 cbr 1500 ------- 0 1.0 3.0 8 64
- 1.0192 1 2 cbr 1500 ------- 0 1.0 3.0 8 64
+ 1.0192 1 0 cbr 1500 ------- 0 1.2 10.0 8 65
- 1.0192 1 0 cbr 1500 ------- 0 1.2 10.0 8 65
+ 1.0192 4 5 cbr 2000 ------- 0 4.0 6.0 6 66
- 1.0192 4 5 cbr 2000 ------- 0 4.0 6.0 6 66
+ 1.0192 7 8 cbr 2000 ------- 0 7.0 9.1 6 67
- 1.0192 7 8 cbr 2000 ------- 0 7.0 9.1 6 67
+ 1.0192 11 10 cbr 2000 ------- 0 11.0 9.0 6 68
- 1.0192 11 10 cbr 2000 ------- 0 11.0 9.0 6 68
+ 1.0192 13 14 cbr 2000 ------- 0 13.0 8.0 6 69
- 1.0192 13 14 cbr 2000 ------- 0 13.0 8.0 6 69
+ 1.0192 0 11 cbr 2000 ------- 0 0.0 9.2 6 70
+ 1.0192 12 13 cbr 2000 ------- 0 12.0 7.1 6 71
- 1.0192 12 13 cbr 2000 ------- 0 12.0 7.1 6 71
+ 1.0192 2 3 cbr 2000 ------- 0 2.0 4.1 6 72
+ 1.0192 3 4 cbr 2000 ------- 0 3.1 5.0 6 73
- 1.0192 3 4 cbr 2000 ------- 0 3.1 5.0 6 73
- 1.02 2 3 cbr 2000 ------- 0 2.0 4.1 6 72
- 1.02 0 11 cbr 2000 ------- 0 0.0 9.2 6 70
r 1.0208 1 2 cbr 1500 ------- 0 1.0 3.0 4 32
+ 1.0208 2 3 cbr 1500 ------- 0 1.0 3.0 4 32
r 1.0208 1 0 cbr 1500 ------- 0 1.2 10.0 4 33
+ 1.0208 0 11 cbr 1500 ------- 0 1.2 10.0 4 33
r 1.0212 11 10 cbr 2000 ------- 0 11.0 9.0 3 36
+ 1.0212 10 9 cbr 2000 ------- 0 11.0 9.0 3 36
- 1.0212 10 9 cbr 2000 ------- 0 11.0 9.0 3 36
+ 1.0216 1 2 cbr 1500 ------- 0 1.0 3.0 9 74
- 1.0216 1 2 cbr 1500 ------- 0 1.0 3.0 9 74
+ 1.0216 1 0 cbr 1500 ------- 0 1.2 10.0 9 75
- 1.0216 1 0 cbr 1500 ------- 0 1.2 10.0 9 75
r 1.0216 4 5 cbr 2000 ------- 0 4.0 6.0 0 2
+ 1.0216 5 6 cbr 2000 ------- 0 4.0 6.0 0 2
- 1.0216 5 6 cbr 2000 ------- 0 4.0 6.0 0 2
r 1.0216 2 3 cbr 2000 ------- 0 2.0 4.1 0 8
+ 1.0216 3 4 cbr 2000 ------- 0 2.0 4.1 0 8
- 1.0216 3 4 cbr 2000 ------- 0 2.0 4.1 0 8
r 1.0216 3 4 cbr 2000 ------- 0 3.1 5.0 0 9
+ 1.0216 4 5 cbr 2000 ------- 0 3.1 5.0 0 9
- 1.0216 4 5 cbr 2000 ------- 0 3.1 5.0 0 9
- 1.0216 2 3 cbr 1500 ------- 0 1.0 3.0 4 32
- 1.0216 0 11 cbr 1500 ------- 0 1.2 10.0 4 33
+ 1.0224 4 5 cbr 2000 ------- 0 4.0 6.0 7 76
+ 1.0224 7 8 cbr 2000 ------- 0 7.0 9.1 7 77
- 1.0224 7 8 cbr 2000 ------- 0 7.0 9.1 7 77
+ 1.0224 11 10 cbr 2000 ------- 0 11.0 9.0 7 78
- 1.0224 11 10 cbr 2000 ------- 0 11.0 9.0 7 78
+ 1.0224 13 14 cbr 2000 ------- 0 13.0 8.0 7 79
- 1.0224 13 14 cbr 2000 ------- 0 13.0 8.0 7 79
+ 1.0224 0 11 cbr 2000 ------- 0 0.0 9.2 7 80
+ 1.0224 12 13 cbr 2000 ------- 0 12.0 7.1 7 81
- 1.0224 12 13 cbr 2000 ------- 0 12.0 7.1 7 81
+ 1.0224 2 3 cbr 2000 ------- 0 2.0 4.1 7 82
+ 1.0224 3 4 cbr 2000 ------- 0 3.1 5.0 7 83
- 1.0228 2 3 cbr 2000 ------- 0 2.0 4.1 7 82
- 1.0228 0 11 cbr 2000 ------- 0 0.0 9.2 7 80
r 1.0232 1 2 cbr 1500 ------- 0 1.0 3.0 5 42
+ 1.0232 2 3 cbr 1500 ------- 0 1.0 3.0 5 42
r 1.0232 1 0 cbr 1500 ------- 0 1.2 10.0 5 43
+ 1.0232 0 11 cbr 1500 ------- 0 1.2 10.0 5 43
- 1.0232 3 4 cbr 2000 ------- 0 3.1 5.0 7 83
- 1.0232 4 5 cbr 2000 ------- 0 4.0 6.0 7 76
+ 1.024 1 2 cbr 1500 ------- 0 1.0 3.0 10 84
- 1.024 1 2 cbr 1500 ------- 0 1.0 3.0 10 84
+ 1.024 1 0 cbr 1500 ------- 0 1.2 10.0 10 85
- 1.024 1 0 cbr 1500 ------- 0 1.2 10.0 10 85
r 1.0244 11 10 cbr 2000 ------- 0 11.0 9.0 4 46
+ 1.0244 10 9 cbr 2000 ------- 0 11.0 9.0 4 46
- 1.0244 10 9 cbr 2000 ------- 0 11.0 9.0 4 46
- 1.0244 2 3 cbr 1500 ------- 0 1.0 3.0 5 42
- 1.0244 0 11 cbr 1500 ------- 0 1.2 10.0 5 43
r 1.0248 4 5 cbr 2000 ------- 0 4.0 6.0 1 12
+ 1.0248 5 6 cbr 2000 ------- 0 4.0 6.0 1 12
- 1.0248 5 6 cbr 2000 ------- 0 4.0 6.0 1 12
r 1.0248 2 3 cbr 2000 ------- 0 2.0 4.1 1 18
+ 1.0248 3 4 cbr 2000 ------- 0 2.0 4.1 1 18
r 1.0248 3 4 cbr 2000 ------- 0 3.1 5.0 1 19
+ 1.0248 4 5 cbr 2000 ------- 0 3.1 5.0 1 19
- 1.0248 3 4 cbr 2000 ------- 0 2.0 4.1 1 18
- 1.0248 4 5 cbr 2000 ------- 0 3.1 5.0 1 19
r 1.0256 1 2 cbr 1500 ------- 0 1.0 3.0 6 52
+ 1.0256 2 3 cbr 1500 ------- 0 1.0 3.0 6 52
r 1.0256 1 0 cbr 1500 ------- 0 1.2 10.0 6 53
+ 1.0256 0 11 cbr 1500 ------- 0 1.2 10.0 6 53
- 1.0256 2 3 cbr 1500 ------- 0 1.0 3.0 6 52
- 1.0256 0 11 cbr 1500 ------- 0 1.2 10.0 6 53
+ 1.0256 4 5 cbr 2000 ------- 0 4.0 6.0 8 86
+ 1.0256 7 8 cbr 2000 ------- 0 7.0 9.1 8 87
- 1.0256 7 8 cbr 2000 ------- 0 7.0 9.1 8 87
+ 1.0256 11 10 cbr 2000 ------- 0 11.0 9.0 8 88
- 1.0256 11 10 cbr 2000 ------- 0 11.0 9.0 8 88
+ 1.0256 13 14 cbr 2000 ------- 0 13.0 8.0 8 89
- 1.0256 13 14 cbr 2000 ------- 0 13.0 8.0 8 89
+ 1.0256 0 11 cbr 2000 ------- 0 0.0 9.2 8 90
+ 1.0256 12 13 cbr 2000 ------- 0 12.0 7.1 8 91
- 1.0256 12 13 cbr 2000 ------- 0 12.0 7.1 8 91
+ 1.0256 2 3 cbr 2000 ------- 0 2.0 4.1 8 92
+ 1.0256 3 4 cbr 2000 ------- 0 3.1 5.0 8 93
+ 1.0264 1 2 cbr 1500 ------- 0 1.0 3.0 11 94
- 1.0264 1 2 cbr 1500 ------- 0 1.0 3.0 11 94
+ 1.0264 1 0 cbr 1500 ------- 0 1.2 10.0 11 95
- 1.0264 1 0 cbr 1500 ------- 0 1.2 10.0 11 95
- 1.0264 3 4 cbr 2000 ------- 0 3.1 5.0 8 93
- 1.0264 4 5 cbr 2000 ------- 0 4.0 6.0 8 86
- 1.0268 2 3 cbr 2000 ------- 0 2.0 4.1 8 92
- 1.0268 0 11 cbr 2000 ------- 0 0.0 9.2 8 90
r 1.0276 11 10 cbr 2000 ------- 0 11.0 9.0 5 56
+ 1.0276 10 9 cbr 2000 ------- 0 11.0 9.0 5 56
- 1.0276 10 9 cbr 2000 ------- 0 11.0 9.0 5 56
r 1.028 1 2 cbr 1500 ------- 0 1.0 3.0 7 62
+ 1.028 2 3 cbr 1500 ------- 0 1.0 3.0 7 62
r 1.028 1 0 cbr 1500 ------- 0 1.2 10.0 7 63
+ 1.028 0 11 cbr 1500 ------- 0 1.2 10.0 7 63
r 1.028 4 5 cbr 2000 ------- 0 4.0 6.0 2 22
+ 1.028 5 6 cbr 2000 ------- 0 4.0 6.0 2 22
- 1.028 5 6 cbr 2000 ------- 0 4.0 6.0 2 22
r 1.028 2 3 cbr 2000 ------- 0 2.0 4.1 2 28
+ 1.028 3 4 cbr 2000 ------- 0 2.0 4.1 2 28
r 1.028 3 4 cbr 2000 ------- 0 3.1 5.0 2 29
+ 1.028 4 5 cbr 2000 ------- 0 3.1 5.0 2 29
- 1.028 3 4 cbr 2000 ------- 0 2.0 4.1 2 28
- 1.028 4 5 cbr 2000 ------- 0 3.1 5.0 2 29
- 1.0284 2 3 cbr 1500 ------- 0 1.0 3.0 7 62
- 1.0284 0 11 cbr 1500 ------- 0 1.2 10.0 7 63
+ 1.0288 1 2 cbr 1500 ------- 0 1.0 3.0 12 96
- 1.0288 1 2 cbr 1500 ------- 0 1.0 3.0 12 96
+ 1.0288 1 0 cbr 1500 ------- 0 1.2 10.0 12 97
- 1.0288 1 0 cbr 1500 ------- 0 1.2 10.0 12 97
+ 1.0288 4 5 cbr 2000 ------- 0 4.0 6.0 9 98
+ 1.0288 7 8 cbr 2000 ------- 0 7.0 9.1 9 99
- 1.0288 7 8 cbr 2000 ------- 0 7.0 9.1 9 99
+ 1.0288 11 10 cbr 2000 ------- 0 11.0 9.0 9 100
- 1.0288 11 10 cbr 2000 ------- 0 11.0 9.0 9 100
+ 1.0288 13 14 cbr 2000 ------- 0 13.0 8.0 9 101
- 1.0288 13 14 cbr 2000 ------- 0 13.0 8.0 9 101
+ 1.0288 0 11 cbr 2000 ------- 0 0.0 9.2 9 102
+ 1.0288 12 13 cbr 2000 ------- 0 12.0 7.1 9 103
- 1.0288 12 13 cbr 2000 ------- 0 12.0 7.1 9 103
+ 1.0288 2 3 cbr 2000 ------- 0 2.0 4.1 9 104
+ 1.0288 3 4 cbr 2000 ------- 0 3.1 5.0 9 105
- 1.0296 3 4 cbr 2000 ------- 0 3.1 5.0 9 105
- 1.0296 4 5 cbr 2000 ------- 0 4.0 6.0 9 98
- 1.0296 2 3 cbr 2000 ------- 0 2.0 4.1 9 104
- 1.0296 0 11 cbr 2000 ------- 0 0.0 9.2 9 102
r 1.0304 1 2 cbr 1500 ------- 0 1.0 3.0 8 64
+ 1.0304 2 3 cbr 1500 ------- 0 1.0 3.0 8 64
r 1.0304 1 0 cbr 1500 ------- 0 1.2 10.0 8 65
+ 1.0304 0 11 cbr 1500 ------- 0 1.2 10.0 8 65
r 1.0308 11 10 cbr 2000 ------- 0 11.0 9.0 6 68
+ 1.0308 10 9 cbr 2000 ------- 0 11.0 9.0 6 68
- 1.0308 10 9 cbr 2000 ------- 0 11.0 9.0 6 68
+ 1.0312 1 2 cbr 1500 ------- 0 1.0 3.0 13 106
- 1.0312 1 2 cbr 1500 ------- 0 1.0 3.0 13 106
+ 1.0312 1 0 cbr 1500 ------- 0 1.2 10.0 13 107
- 1.0312 1 0 cbr 1500 ------- 0 1.2 10.0 13 107
r 1.0312 4 5 cbr 2000 ------- 0 4.0 6.0 3 34
+ 1.0312 5 6 cbr 2000 ------- 0 4.0 6.0 3 34
- 1.0312 5 6 cbr 2000 ------- 0 4.0 6.0 3 34
r 1.0312 2 3 cbr 2000 ------- 0 2.0 4.1 3 40
+ 1.0312 3 4 cbr 2000 ------- 0 2.0 4.1 3 40
r 1.0312 3 4 cbr 2000 ------- 0 3.1 5.0 3 41
+ 1.0312 4 5 cbr 2000 ------- 0 3.1 5.0 3 41
- 1.0312 3 4 cbr 2000 ------- 0 2.0 4.1 3 40
- 1.0312 4 5 cbr 2000 ------- 0 3.1 5.0 3 41
- 1.0312 2 3 cbr 1500 ------- 0 1.0 3.0 8 64
- 1.0312 0 11 cbr 1500 ------- 0 1.2 10.0 8 65
r 1.0316 0 11 cbr 2000 ------- 0 0.0 9.2 0 6
+ 1.0316 11 10 cbr 2000 ------- 0 0.0 9.2 0 6
- 1.0316 11 10 cbr 2000 ------- 0 0.0 9.2 0 6
+ 1.032 4 5 cbr 2000 ------- 0 4.0 6.0 10 108
+ 1.032 7 8 cbr 2000 ------- 0 7.0 9.1 10 109
- 1.032 7 8 cbr 2000 ------- 0 7.0 9.1 10 109
+ 1.032 11 10 cbr 2000 ------- 0 11.0 9.0 10 110
+ 1.032 13 14 cbr 2000 ------- 0 13.0 8.0 10 111
- 1.032 13 14 cbr 2000 ------- 0 13.0 8.0 10 111
+ 1.032 0 11 cbr 2000 ------- 0 0.0 9.2 10 112
+ 1.032 12 13 cbr 2000 ------- 0 12.0 7.1 10 113
- 1.032 12 13 cbr 2000 ------- 0 12.0 7.1 10 113
+ 1.032 2 3 cbr 2000 ------- 0 2.0 4.1 10 114
+ 1.032 3 4 cbr 2000 ------- 0 3.1 5.0 10 115
r 1.0324 2 3 cbr 1500 ------- 0 1.0 3.0 0 0
- 1.0324 2 3 cbr 2000 ------- 0 2.0 4.1 10 114
- 1.0324 0 11 cbr 2000 ------- 0 0.0 9.2 10 112
r 1.0328 1 2 cbr 1500 ------- 0 1.0 3.0 9 74
+ 1.0328 2 3 cbr 1500 ------- 0 1.0 3.0 9 74
r 1.0328 1 0 cbr 1500 ------- 0 1.2 10.0 9 75
+ 1.0328 0 11 cbr 1500 ------- 0 1.2 10.0 9 75
- 1.0328 3 4 cbr 2000 ------- 0 3.1 5.0 10 115
- 1.0328 4 5 cbr 2000 ------- 0 4.0 6.0 10 108
r 1.0332 10 9 cbr 2000 ------- 0 11.0 9.0 0 4
r 1.0332 5 6 cbr 2000 ------- 0 4.0 6.0 0 2
- 1.0332 11 10 cbr 2000 ------- 0 11.0 9.0 10 110
+ 1.0336 1 2 cbr 1500 ------- 0 1.0 3.0 14 116
- 1.0336 1 2 cbr 1500 ------- 0 1.0 3.0 14 116
+ 1.0336 1 0 cbr 1500 ------- 0 1.2 10.0 14 117
- 1.0336 1 0 cbr 1500 ------- 0 1.2 10.0 14 117
r 1.034 11 10 cbr 2000 ------- 0 11.0 9.0 7 78
+ 1.034 10 9 cbr 2000 ------- 0 11.0 9.0 7 78
- 1.034 10 9 cbr 2000 ------- 0 11.0 9.0 7 78
- 1.034 2 3 cbr 1500 ------- 0 1.0 3.0 9 74
- 1.034 0 11 cbr 1500 ------- 0 1.2 10.0 9 75
r 1.0344 4 5 cbr 2000 ------- 0 4.0 6.0 4 44
+ 1.0344 5 6 cbr 2000 ------- 0 4.0 6.0 4 44
- 1.0344 5 6 cbr 2000 ------- 0 4.0 6.0 4 44
r 1.0344 2 3 cbr 2000 ------- 0 2.0 4.1 4 50
+ 1.0344 3 4 cbr 2000 ------- 0 2.0 4.1 4 50
r 1.0344 3 4 cbr 2000 ------- 0 3.1 5.0 4 51
+ 1.0344 4 5 cbr 2000 ------- 0 3.1 5.0 4 51
- 1.0344 3 4 cbr 2000 ------- 0 2.0 4.1 4 50
- 1.0344 4 5 cbr 2000 ------- 0 3.1 5.0 4 51
r 1.0348 0 11 cbr 2000 ------- 0 0.0 9.2 1 16
+ 1.0348 11 10 cbr 2000 ------- 0 0.0 9.2 1 16
- 1.0348 11 10 cbr 2000 ------- 0 0.0 9.2 1 16
r 1.0352 1 2 cbr 1500 ------- 0 1.0 3.0 10 84
+ 1.0352 2 3 cbr 1500 ------- 0 1.0 3.0 10 84
r 1.0352 1 0 cbr 1500 ------- 0 1.2 10.0 10 85
+ 1.0352 0 11 cbr 1500 ------- 0 1.2 10.0 10 85
+ 1.0352 4 5 cbr 2000 ------- 0 4.0 6.0 11 118
+ 1.0352 7 8 cbr 2000 ------- 0 7.0 9.1 11 119
- 1.0352 7 8 cbr 2000 ------- 0 7.0 9.1 11 119
+ 1.0352 11 10 cbr 2000 ------- 0 11.0 9.0 11 120
+ 1.0352 13 14 cbr 2000 ------- 0 13.0 8.0 11 121
- 1.0352 13 14 cbr 2000 ------- 0 13.0 8.0 11 121
+ 1.0352 0 11 cbr 2000 ------- 0 0.0 9.2 11 122
+ 1.0352 12 13 cbr 2000 ------- 0 12.0 7.1 11 123
- 1.0352 12 13 cbr 2000 ------- 0 12.0 7.1 11 123
+ 1.0352 2 3 cbr 2000 ------- 0 2.0 4.1 11 124
+ 1.0352 3 4 cbr 2000 ------- 0 3.1 5.0 11 125
- 1.0352 2 3 cbr 1500 ------- 0 1.0 3.0 10 84
- 1.0352 0 11 cbr 1500 ------- 0 1.2 10.0 10 85
r 1.0356 2 3 cbr 1500 ------- 0 1.0 3.0 1 10
+ 1.036 1 2 cbr 1500 ------- 0 1.0 3.0 15 126
- 1.036 1 2 cbr 1500 ------- 0 1.0 3.0 15 126
+ 1.036 1 0 cbr 1500 ------- 0 1.2 10.0 15 127
- 1.036 1 0 cbr 1500 ------- 0 1.2 10.0 15 127
- 1.036 3 4 cbr 2000 ------- 0 3.1 5.0 11 125
- 1.036 4 5 cbr 2000 ------- 0 4.0 6.0 11 118
r 1.0364 10 9 cbr 2000 ------- 0 11.0 9.0 1 14
r 1.0364 5 6 cbr 2000 ------- 0 4.0 6.0 1 12
- 1.0364 11 10 cbr 2000 ------- 0 11.0 9.0 11 120
- 1.0364 2 3 cbr 2000 ------- 0 2.0 4.1 11 124
- 1.0364 0 11 cbr 2000 ------- 0 0.0 9.2 11 122
r 1.0372 2 3 cbr 1500 ------- 0 1.0 3.0 2 20
r 1.0372 11 10 cbr 2000 ------- 0 11.0 9.0 8 88
+ 1.0372 10 9 cbr 2000 ------- 0 11.0 9.0 8 88
- 1.0372 10 9 cbr 2000 ------- 0 11.0 9.0 8 88
r 1.0376 1 2 cbr 1500 ------- 0 1.0 3.0 11 94
+ 1.0376 2 3 cbr 1500 ------- 0 1.0 3.0 11 94
r 1.0376 1 0 cbr 1500 ------- 0 1.2 10.0 11 95
+ 1.0376 0 11 cbr 1500 ------- 0 1.2 10.0 11 95
r 1.0376 4 5 cbr 2000 ------- 0 4.0 6.0 5 54
+ 1.0376 5 6 cbr 2000 ------- 0 4.0 6.0 5 54
- 1.0376 5 6 cbr 2000 ------- 0 4.0 6.0 5 54
r 1.0376 3 4 cbr 2000 ------- 0 3.1 5.0 5 61
+ 1.0376 4 5 cbr 2000 ------- 0 3.1 5.0 5 61
- 1.0376 4 5 cbr 2000 ------- 0 3.1 5.0 5 61
r 1.038 0 11 cbr 2000 ------- 0 0.0 9.2 2 26
+ 1.038 11 10 cbr 2000 ------- 0 0.0 9.2 2 26
- 1.038 11 10 cbr 2000 ------- 0 0.0 9.2 2 26
- 1.038 2 3 cbr 1500 ------- 0 1.0 3.0 11 94
- 1.038 0 11 cbr 1500 ------- 0 1.2 10.0 11 95
+ 1.0384 1 2 cbr 1500 ------- 0 1.0 3.0 16 128
- 1.0384 1 2 cbr 1500 ------- 0 1.0 3.0 16 128
+ 1.0384 1 0 cbr 1500 ------- 0 1.2 10.0 16 129
- 1.0384 1 0 cbr 1500 ------- 0 1.2 10.0 16 129
+ 1.0384 4 5 cbr 2000 ------- 0 4.0 6.0 12 130
+ 1.0384 7 8 cbr 2000 ------- 0 7.0 9.1 12 131
- 1.0384 7 8 cbr 2000 ------- 0 7.0 9.1 12 131
+ 1.0384 11 10 cbr 2000 ------- 0 11.0 9.0 12 132
+ 1.0384 13 14 cbr 2000 ------- 0 13.0 8.0 12 133
- 1.0384 13 14 cbr 2000 ------- 0 13.0 8.0 12 133
+ 1.0384 0 11 cbr 2000 ------- 0 0.0 9.2 12 134
+ 1.0384 12 13 cbr 2000 ------- 0 12.0 7.1 12 135
- 1.0384 12 13 cbr 2000 ------- 0 12.0 7.1 12 135
+ 1.0384 2 3 cbr 2000 ------- 0 2.0 4.1 12 136
+ 1.0384 3 4 cbr 2000 ------- 0 3.1 5.0 12 137
- 1.0384 3 4 cbr 2000 ------- 0 3.1 5.0 12 137
r 1.0388 2 3 cbr 2000 ------- 0 2.0 4.1 5 60
+ 1.0388 3 4 cbr 2000 ------- 0 2.0 4.1 5 60
- 1.0392 4 5 cbr 2000 ------- 0 4.0 6.0 12 130
- 1.0392 2 3 cbr 2000 ------- 0 2.0 4.1 12 136
- 1.0392 0 11 cbr 2000 ------- 0 0.0 9.2 12 134
r 1.0396 10 9 cbr 2000 ------- 0 11.0 9.0 2 24
r 1.0396 5 6 cbr 2000 ------- 0 4.0 6.0 2 22
- 1.0396 11 10 cbr 2000 ------- 0 11.0 9.0 12 132
r 1.04 1 2 cbr 1500 ------- 0 1.0 3.0 12 96
+ 1.04 2 3 cbr 1500 ------- 0 1.0 3.0 12 96
r 1.04 1 0 cbr 1500 ------- 0 1.2 10.0 12 97
+ 1.04 0 11 cbr 1500 ------- 0 1.2 10.0 12 97
r 1.04 2 3 cbr 1500 ------- 0 1.0 3.0 3 30
- 1.04 3 4 cbr 2000 ------- 0 2.0 4.1 5 60
r 1.0404 11 10 cbr 2000 ------- 0 11.0 9.0 9 100
+ 1.0404 10 9 cbr 2000 ------- 0 11.0 9.0 9 100
- 1.0404 10 9 cbr 2000 ------- 0 11.0 9.0 9 100
+ 1.0408 1 2 cbr 1500 ------- 0 1.0 3.0 17 138
- 1.0408 1 2 cbr 1500 ------- 0 1.0 3.0 17 138
+ 1.0408 1 0 cbr 1500 ------- 0 1.2 10.0 17 139
- 1.0408 1 0 cbr 1500 ------- 0 1.2 10.0 17 139
r 1.0408 4 5 cbr 2000 ------- 0 4.0 6.0 6 66
+ 1.0408 5 6 cbr 2000 ------- 0 4.0 6.0 6 66
- 1.0408 5 6 cbr 2000 ------- 0 4.0 6.0 6 66
r 1.0408 3 4 cbr 2000 ------- 0 3.1 5.0 6 73
+ 1.0408 4 5 cbr 2000 ------- 0 3.1 5.0 6 73
- 1.0408 4 5 cbr 2000 ------- 0 3.1 5.0 6 73
- 1.0408 2 3 cbr 1500 ------- 0 1.0 3.0 12 96
- 1.0408 0 11 cbr 1500 ------- 0 1.2 10.0 12 97
r 1.0412 0 11 cbr 2000 ------- 0 0.0 9.2 3 38
+ 1.0412 11 10 cbr 2000 ------- 0 0.0 9.2 3 38
- 1.0412 11 10 cbr 2000 ------- 0 0.0 9.2 3 38
r 1.0416 7 8 cbr 2000 ------- 0 7.0 9.1 0 3
+ 1.0416 8 9 cbr 2000 ------- 0 7.0 9.1 0 3
- 1.0416 8 9 cbr 2000 ------- 0 7.0 9.1 0 3
r 1.0416 13 14 cbr 2000 ------- 0 13.0 8.0 0 5
+ 1.0416 14 7 cbr 2000 ------- 0 13.0 8.0 0 5
- 1.0416 14 7 cbr 2000 ------- 0 13.0 8.0 0 5
r 1.0416 12 13 cbr 2000 ------- 0 12.0 7.1 0 7
+ 1.0416 13 14 cbr 2000 ------- 0 12.0 7.1 0 7
- 1.0416 13 14 cbr 2000 ------- 0 12.0 7.1 0 7
r 1.0416 2 3 cbr 2000 ------- 0 2.0 4.1 6 72
+ 1.0416 3 4 cbr 2000 ------- 0 2.0 4.1 6 72
+ 1.0416 4 5 cbr 2000 ------- 0 4.0 6.0 13 140
+ 1.0416 7 8 cbr 2000 ------- 0 7.0 9.1 13 141
- 1.0416 7 8 cbr 2000 ------- 0 7.0 9.1 13 141
+ 1.0416 11 10 cbr 2000 ------- 0 11.0 9.0 13 142
+ 1.0416 13 14 cbr 2000 ------- 0 13.0 8.0 13 143
+ 1.0416 0 11 cbr 2000 ------- 0 0.0 9.2 13 144
+ 1.0416 12 13 cbr 2000 ------- 0 12.0 7.1 13 145
- 1.0416 12 13 cbr 2000 ------- 0 12.0 7.1 13 145
+ 1.0416 2 3 cbr 2000 ------- 0 2.0 4.1 13 146
+ 1.0416 3 4 cbr 2000 ------- 0 3.1 5.0 13 147
- 1.0416 3 4 cbr 2000 ------- 0 2.0 4.1 6 72
- 1.042 2 3 cbr 2000 ------- 0 2.0 4.1 13 146
- 1.042 0 11 cbr 2000 ------- 0 0.0 9.2 13 144
r 1.0424 1 2 cbr 1500 ------- 0 1.0 3.0 13 106
+ 1.0424 2 3 cbr 1500 ------- 0 1.0 3.0 13 106
r 1.0424 1 0 cbr 1500 ------- 0 1.2 10.0 13 107
+ 1.0424 0 11 cbr 1500 ------- 0 1.2 10.0 13 107
r 1.0424 0 11 cbr 1500 ------- 0 1.2 10.0 0 1
+ 1.0424 11 10 cbr 1500 ------- 0 1.2 10.0 0 1
- 1.0424 4 5 cbr 2000 ------- 0 4.0 6.0 13 140
r 1.0428 10 9 cbr 2000 ------- 0 11.0 9.0 3 36
r 1.0428 2 3 cbr 1500 ------- 0 1.0 3.0 4 32
r 1.0428 5 6 cbr 2000 ------- 0 4.0 6.0 3 34
- 1.0428 11 10 cbr 2000 ------- 0 11.0 9.0 13 142
+ 1.0432 1 2 cbr 1500 ------- 0 1.0 3.0 18 148
- 1.0432 1 2 cbr 1500 ------- 0 1.0 3.0 18 148
+ 1.0432 1 0 cbr 1500 ------- 0 1.2 10.0 18 149
- 1.0432 1 0 cbr 1500 ------- 0 1.2 10.0 18 149
r 1.0432 3 4 cbr 2000 ------- 0 2.0 4.1 0 8
r 1.0432 4 5 cbr 2000 ------- 0 3.1 5.0 0 9
r 1.0432 11 10 cbr 2000 ------- 0 0.0 9.2 0 6
+ 1.0432 10 9 cbr 2000 ------- 0 0.0 9.2 0 6
- 1.0432 10 9 cbr 2000 ------- 0 0.0 9.2 0 6
- 1.0432 13 14 cbr 2000 ------- 0 13.0 8.0 13 143
- 1.0432 3 4 cbr 2000 ------- 0 3.1 5.0 13 147
- 1.0436 2 3 cbr 1500 ------- 0 1.0 3.0 13 106
- 1.0436 0 11 cbr 1500 ------- 0 1.2 10.0 13 107
r 1.0444 0 11 cbr 2000 ------- 0 0.0 9.2 4 48
+ 1.0444 11 10 cbr 2000 ------- 0 0.0 9.2 4 48
r 1.0444 2 3 cbr 2000 ------- 0 2.0 4.1 7 82
+ 1.0444 3 4 cbr 2000 ------- 0 2.0 4.1 7 82
- 1.0444 11 10 cbr 1500 ------- 0 1.2 10.0 0 1
r 1.0448 1 2 cbr 1500 ------- 0 1.0 3.0 14 116
+ 1.0448 2 3 cbr 1500 ------- 0 1.0 3.0 14 116
r 1.0448 1 0 cbr 1500 ------- 0 1.2 10.0 14 117
+ 1.0448 0 11 cbr 1500 ------- 0 1.2 10.0 14 117
r 1.0448 7 8 cbr 2000 ------- 0 7.0 9.1 1 13
+ 1.0448 8 9 cbr 2000 ------- 0 7.0 9.1 1 13
- 1.0448 8 9 cbr 2000 ------- 0 7.0 9.1 1 13
r 1.0448 13 14 cbr 2000 ------- 0 13.0 8.0 1 15
+ 1.0448 14 7 cbr 2000 ------- 0 13.0 8.0 1 15
- 1.0448 14 7 cbr 2000 ------- 0 13.0 8.0 1 15
r 1.0448 12 13 cbr 2000 ------- 0 12.0 7.1 1 17
+ 1.0448 13 14 cbr 2000 ------- 0 12.0 7.1 1 17
r 1.0448 3 4 cbr 2000 ------- 0 3.1 5.0 7 83
+ 1.0448 4 5 cbr 2000 ------- 0 3.1 5.0 7 83
- 1.0448 4 5 cbr 2000 ------- 0 3.1 5.0 7 83
r 1.0448 4 5 cbr 2000 ------- 0 4.0 6.0 7 76
+ 1.0448 5 6 cbr 2000 ------- 0 4.0 6.0 7 76
- 1.0448 5 6 cbr 2000 ------- 0 4.0 6.0 7 76
r 1.0448 11 10 cbr 2000 ------- 0 11.0 9.0 10 110
+ 1.0448 10 9 cbr 2000 ------- 0 11.0 9.0 10 110
- 1.0448 10 9 cbr 2000 ------- 0 11.0 9.0 10 110
- 1.0448 13 14 cbr 2000 ------- 0 12.0 7.1 1 17
+ 1.0448 4 5 cbr 2000 ------- 0 4.0 6.0 14 150
+ 1.0448 7 8 cbr 2000 ------- 0 7.0 9.1 14 151
- 1.0448 7 8 cbr 2000 ------- 0 7.0 9.1 14 151
+ 1.0448 11 10 cbr 2000 ------- 0 11.0 9.0 14 152
+ 1.0448 13 14 cbr 2000 ------- 0 13.0 8.0 14 153
+ 1.0448 0 11 cbr 2000 ------- 0 0.0 9.2 14 154
+ 1.0448 12 13 cbr 2000 ------- 0 12.0 7.1 14 155
- 1.0448 12 13 cbr 2000 ------- 0 12.0 7.1 14 155
+ 1.0448 2 3 cbr 2000 ------- 0 2.0 4.1 14 156
+ 1.0448 3 4 cbr 2000 ------- 0 3.1 5.0 14 157
- 1.0448 3 4 cbr 2000 ------- 0 2.0 4.1 7 82
- 1.0448 2 3 cbr 1500 ------- 0 1.0 3.0 14 116
- 1.0448 0 11 cbr 1500 ------- 0 1.2 10.0 14 117
+ 1.0456 1 2 cbr 1500 ------- 0 1.0 3.0 19 158
- 1.0456 1 2 cbr 1500 ------- 0 1.0 3.0 19 158
+ 1.0456 1 0 cbr 1500 ------- 0 1.2 10.0 19 159
- 1.0456 1 0 cbr 1500 ------- 0 1.2 10.0 19 159
r 1.0456 0 11 cbr 1500 ------- 0 1.2 10.0 1 11
+ 1.0456 11 10 cbr 1500 ------- 0 1.2 10.0 1 11
r 1.0456 2 3 cbr 1500 ------- 0 1.0 3.0 5 42
- 1.0456 11 10 cbr 2000 ------- 0 0.0 9.2 4 48
r 1.046 10 9 cbr 2000 ------- 0 11.0 9.0 4 46
r 1.046 5 6 cbr 2000 ------- 0 4.0 6.0 4 44
- 1.046 2 3 cbr 2000 ------- 0 2.0 4.1 14 156
- 1.046 0 11 cbr 2000 ------- 0 0.0 9.2 14 154
r 1.0464 3 4 cbr 2000 ------- 0 2.0 4.1 1 18
r 1.0464 4 5 cbr 2000 ------- 0 3.1 5.0 1 19
r 1.0464 11 10 cbr 2000 ------- 0 0.0 9.2 1 16
+ 1.0464 10 9 cbr 2000 ------- 0 0.0 9.2 1 16
- 1.0464 4 5 cbr 2000 ------- 0 4.0 6.0 14 150
- 1.0464 10 9 cbr 2000 ------- 0 0.0 9.2 1 16
- 1.0464 13 14 cbr 2000 ------- 0 13.0 8.0 14 153
- 1.0464 3 4 cbr 2000 ------- 0 3.1 5.0 14 157
r 1.0468 2 3 cbr 1500 ------- 0 1.0 3.0 6 52
r 1.0472 1 2 cbr 1500 ------- 0 1.0 3.0 15 126
+ 1.0472 2 3 cbr 1500 ------- 0 1.0 3.0 15 126
r 1.0472 1 0 cbr 1500 ------- 0 1.2 10.0 15 127
+ 1.0472 0 11 cbr 1500 ------- 0 1.2 10.0 15 127
r 1.0472 0 11 cbr 1500 ------- 0 1.2 10.0 2 21
+ 1.0472 11 10 cbr 1500 ------- 0 1.2 10.0 2 21
- 1.0472 11 10 cbr 2000 ------- 0 11.0 9.0 14 152
- 1.0476 2 3 cbr 1500 ------- 0 1.0 3.0 15 126
- 1.0476 0 11 cbr 1500 ------- 0 1.2 10.0 15 127
+ 1.048 1 2 cbr 1500 ------- 0 1.0 3.0 20 160
- 1.048 1 2 cbr 1500 ------- 0 1.0 3.0 20 160
+ 1.048 1 0 cbr 1500 ------- 0 1.2 10.0 20 161
- 1.048 1 0 cbr 1500 ------- 0 1.2 10.0 20 161
r 1.048 7 8 cbr 2000 ------- 0 7.0 9.1 2 23
+ 1.048 8 9 cbr 2000 ------- 0 7.0 9.1 2 23
- 1.048 8 9 cbr 2000 ------- 0 7.0 9.1 2 23
r 1.048 13 14 cbr 2000 ------- 0 13.0 8.0 2 25
+ 1.048 14 7 cbr 2000 ------- 0 13.0 8.0 2 25
- 1.048 14 7 cbr 2000 ------- 0 13.0 8.0 2 25
r 1.048 12 13 cbr 2000 ------- 0 12.0 7.1 2 27
+ 1.048 13 14 cbr 2000 ------- 0 12.0 7.1 2 27
r 1.048 3 4 cbr 2000 ------- 0 3.1 5.0 8 93
+ 1.048 4 5 cbr 2000 ------- 0 3.1 5.0 8 93
r 1.048 4 5 cbr 2000 ------- 0 4.0 6.0 8 86
+ 1.048 5 6 cbr 2000 ------- 0 4.0 6.0 8 86
- 1.048 5 6 cbr 2000 ------- 0 4.0 6.0 8 86
r 1.048 11 10 cbr 2000 ------- 0 11.0 9.0 11 120
+ 1.048 10 9 cbr 2000 ------- 0 11.0 9.0 11 120
- 1.048 4 5 cbr 2000 ------- 0 3.1 5.0 8 93
- 1.048 10 9 cbr 2000 ------- 0 11.0 9.0 11 120
- 1.048 13 14 cbr 2000 ------- 0 12.0 7.1 2 27
+ 1.048 4 5 cbr 2000 ------- 0 4.0 6.0 15 162
+ 1.048 7 8 cbr 2000 ------- 0 7.0 9.1 15 163
- 1.048 7 8 cbr 2000 ------- 0 7.0 9.1 15 163
+ 1.048 11 10 cbr 2000 ------- 0 11.0 9.0 15 164
+ 1.048 13 14 cbr 2000 ------- 0 13.0 8.0 15 165
+ 1.048 0 11 cbr 2000 ------- 0 0.0 9.2 15 166
+ 1.048 12 13 cbr 2000 ------- 0 12.0 7.1 15 167
- 1.048 12 13 cbr 2000 ------- 0 12.0 7.1 15 167
+ 1.048 2 3 cbr 2000 ------- 0 2.0 4.1 15 168
+ 1.048 3 4 cbr 2000 ------- 0 3.1 5.0 15 169
- 1.048 3 4 cbr 2000 ------- 0 3.1 5.0 15 169
r 1.0484 2 3 cbr 2000 ------- 0 2.0 4.1 8 92
+ 1.0484 3 4 cbr 2000 ------- 0 2.0 4.1 8 92
r 1.0488 0 11 cbr 2000 ------- 0 0.0 9.2 5 58
+ 1.0488 11 10 cbr 2000 ------- 0 0.0 9.2 5 58
- 1.0488 11 10 cbr 1500 ------- 0 1.2 10.0 1 11
- 1.0488 2 3 cbr 2000 ------- 0 2.0 4.1 15 168
- 1.0488 0 11 cbr 2000 ------- 0 0.0 9.2 15 166
r 1.0492 10 9 cbr 2000 ------- 0 11.0 9.0 5 56
r 1.0492 5 6 cbr 2000 ------- 0 4.0 6.0 5 54
r 1.0496 1 2 cbr 1500 ------- 0 1.0 3.0 16 128
+ 1.0496 2 3 cbr 1500 ------- 0 1.0 3.0 16 128
r 1.0496 1 0 cbr 1500 ------- 0 1.2 10.0 16 129
+ 1.0496 0 11 cbr 1500 ------- 0 1.2 10.0 16 129
r 1.0496 3 4 cbr 2000 ------- 0 2.0 4.1 2 28
r 1.0496 4 5 cbr 2000 ------- 0 3.1 5.0 2 29
r 1.0496 11 10 cbr 2000 ------- 0 0.0 9.2 2 26
+ 1.0496 10 9 cbr 2000 ------- 0 0.0 9.2 2 26
- 1.0496 4 5 cbr 2000 ------- 0 4.0 6.0 15 162
- 1.0496 10 9 cbr 2000 ------- 0 0.0 9.2 2 26
- 1.0496 13 14 cbr 2000 ------- 0 13.0 8.0 15 165
r 1.0496 2 3 cbr 1500 ------- 0 1.0 3.0 7 62
- 1.0496 3 4 cbr 2000 ------- 0 2.0 4.1 8 92
r 1.05 0 11 cbr 1500 ------- 0 1.2 10.0 3 31
+ 1.05 11 10 cbr 1500 ------- 0 1.2 10.0 3 31
- 1.05 11 10 cbr 1500 ------- 0 1.2 10.0 2 21
+ 1.0504 1 2 cbr 1500 ------- 0 1.0 3.0 21 170
- 1.0504 1 2 cbr 1500 ------- 0 1.0 3.0 21 170
+ 1.0504 1 0 cbr 1500 ------- 0 1.2 10.0 21 171
- 1.0504 1 0 cbr 1500 ------- 0 1.2 10.0 21 171