+ 0 1 12 cbr 3000 ------- 0 1.1 13.0 0 0
- 0 1 12 cbr 3000 ------- 0 1.1 13.0 0 0
+ 0 1 2 cbr 3000 ------- 0 1.2 3.0 0 1
- 0 1 2 cbr 3000 ------- 0 1.2 3.0 0 1
+ 0 1 0 cbr 3000 ------- 0 1.0 0.0 0 2
- 0 1 0 cbr 3000 ------- 0 1.0 0.0 0 2
+ 0.004 1 0 cbr 3000 ------- 0 1.0 0.0 1 3
+ 0.0048 1 12 cbr 3000 ------- 0 1.1 13.0 1 4
- 0.0048 1 12 cbr 3000 ------- 0 1.1 13.0 1 4
+ 0.0048 1 2 cbr 3000 ------- 0 1.2 3.0 1 5
- 0.0048 1 2 cbr 3000 ------- 0 1.2 3.0 1 5
- 0.0048 1 0 cbr 3000 ------- 0 1.0 0.0 1 3
+ 0.008 1 0 cbr 3000 ------- 0 1.0 0.0 2 6
+ 0.0096 1 12 cbr 3000 ------- 0 1.1 13.0 2 7
- 0.0096 1 12 cbr 3000 ------- 0 1.1 13.0 2 7
+ 0.0096 1 2 cbr 3000 ------- 0 1.2 3.0 2 8
- 0.0096 1 2 cbr 3000 ------- 0 1.2 3.0 2 8
- 0.0096 1 0 cbr 3000 ------- 0 1.0 0.0 2 6
+ 0.012 1 0 cbr 3000 ------- 0 1.0 0.0 3 9
+ 0.0144 1 12 cbr 3000 ------- 0 1.1 13.0 3 10
- 0.0144 1 12 cbr 3000 ------- 0 1.1 13.0 3 10
+ 0.0144 1 2 cbr 3000 ------- 0 1.2 3.0 3 11
- 0.0144 1 2 cbr 3000 ------- 0 1.2 3.0 3 11
- 0.0144 1 0 cbr 3000 ------- 0 1.0 0.0 3 9
+ 0.016 1 0 cbr 3000 ------- 0 1.0 0.0 4 12
+ 0.0192 1 12 cbr 3000 ------- 0 1.1 13.0 4 13
- 0.0192 1 12 cbr 3000 ------- 0 1.1 13.0 4 13
+ 0.0192 1 2 cbr 3000 ------- 0 1.2 3.0 4 14
- 0.0192 1 2 cbr 3000 ------- 0 1.2 3.0 4 14
- 0.0192 1 0 cbr 3000 ------- 0 1.0 0.0 4 12
+ 0.02 1 0 cbr 3000 ------- 0 1.0 0.0 5 15
+ 0.024 1 12 cbr 3000 ------- 0 1.1 13.0 5 16
- 0.024 1 12 cbr 3000 ------- 0 1.1 13.0 5 16
+ 0.024 1 2 cbr 3000 ------- 0 1.2 3.0 5 17
- 0.024 1 2 cbr 3000 ------- 0 1.2 3.0 5 17
- 0.024 1 0 cbr 3000 ------- 0 1.0 0.0 5 15
+ 0.024 1 0 cbr 3000 ------- 0 1.0 0.0 6 18
r 0.0248 1 2 cbr 3000 ------- 0 1.2 3.0 0 1
+ 0.0248 2 3 cbr 3000 ------- 0 1.2 3.0 0 1
- 0.0248 2 3 cbr 3000 ------- 0 1.2 3.0 0 1
r 0.0248 1 0 cbr 3000 ------- 0 1.0 0.0 0 2
+ 0.028 1 0 cbr 3000 ------- 0 1.0 0.0 7 19
+ 0.0288 1 12 cbr 3000 ------- 0 1.1 13.0 6 20
- 0.0288 1 12 cbr 3000 ------- 0 1.1 13.0 6 20
+ 0.0288 1 2 cbr 3000 ------- 0 1.2 3.0 6 21
- 0.0288 1 2 cbr 3000 ------- 0 1.2 3.0 6 21
- 0.0288 1 0 cbr 3000 ------- 0 1.0 0.0 6 18
r 0.0296 1 2 cbr 3000 ------- 0 1.2 3.0 1 5
+ 0.0296 2 3 cbr 3000 ------- 0 1.2 3.0 1 5
- 0.0296 2 3 cbr 3000 ------- 0 1.2 3.0 1 5
r 0.0296 1 0 cbr 3000 ------- 0 1.0 0.0 1 3
+ 0.032 1 0 cbr 3000 ------- 0 1.0 0.0 8 22
r 0.033429 1 12 cbr 3000 ------- 0 1.1 13.0 0 0
+ 0.033429 12 13 cbr 3000 ------- 0 1.1 13.0 0 0
- 0.033429 12 13 cbr 3000 ------- 0 1.1 13.0 0 0
+ 0.0336 1 12 cbr 3000 ------- 0 1.1 13.0 7 23
- 0.0336 1 12 cbr 3000 ------- 0 1.1 13.0 7 23
+ 0.0336 1 2 cbr 3000 ------- 0 1.2 3.0 7 24
- 0.0336 1 2 cbr 3000 ------- 0 1.2 3.0 7 24
- 0.0336 1 0 cbr 3000 ------- 0 1.0 0.0 7 19
r 0.0344 1 2 cbr 3000 ------- 0 1.2 3.0 2 8
+ 0.0344 2 3 cbr 3000 ------- 0 1.2 3.0 2 8
- 0.0344 2 3 cbr 3000 ------- 0 1.2 3.0 2 8
r 0.0344 1 0 cbr 3000 ------- 0 1.0 0.0 2 6
+ 0.036 1 0 cbr 3000 ------- 0 1.0 0.0 9 25
r 0.038229 1 12 cbr 3000 ------- 0 1.1 13.0 1 4
+ 0.038229 12 13 cbr 3000 ------- 0 1.1 13.0 1 4
- 0.038229 12 13 cbr 3000 ------- 0 1.1 13.0 1 4
+ 0.0384 1 12 cbr 3000 ------- 0 1.1 13.0 8 26
- 0.0384 1 12 cbr 3000 ------- 0 1.1 13.0 8 26
+ 0.0384 1 2 cbr 3000 ------- 0 1.2 3.0 8 27
- 0.0384 1 2 cbr 3000 ------- 0 1.2 3.0 8 27
- 0.0384 1 0 cbr 3000 ------- 0 1.0 0.0 8 22
r 0.0392 1 2 cbr 3000 ------- 0 1.2 3.0 3 11
+ 0.0392 2 3 cbr 3000 ------- 0 1.2 3.0 3 11
- 0.0392 2 3 cbr 3000 ------- 0 1.2 3.0 3 11
r 0.0392 1 0 cbr 3000 ------- 0 1.0 0.0 3 9
+ 0.04 1 0 cbr 3000 ------- 0 1.0 0.0 10 28
r 0.043029 1 12 cbr 3000 ------- 0 1.1 13.0 2 7
+ 0.043029 12 13 cbr 3000 ------- 0 1.1 13.0 2 7
- 0.043029 12 13 cbr 3000 ------- 0 1.1 13.0 2 7
+ 0.0432 1 12 cbr 3000 ------- 0 1.1 13.0 9 29
- 0.0432 1 12 cbr 3000 ------- 0 1.1 13.0 9 29
+ 0.0432 1 2 cbr 3000 ------- 0 1.2 3.0 9 30
- 0.0432 1 2 cbr 3000 ------- 0 1.2 3.0 9 30
- 0.0432 1 0 cbr 3000 ------- 0 1.0 0.0 9 25
r 0.044 1 2 cbr 3000 ------- 0 1.2 3.0 4 14
+ 0.044 2 3 cbr 3000 ------- 0 1.2 3.0 4 14
- 0.044 2 3 cbr 3000 ------- 0 1.2 3.0 4 14
r 0.044 1 0 cbr 3000 ------- 0 1.0 0.0 4 12
+ 0.044 1 0 cbr 3000 ------- 0 1.0 0.0 11 31
r 0.047829 1 12 cbr 3000 ------- 0 1.1 13.0 3 10
+ 0.047829 12 13 cbr 3000 ------- 0 1.1 13.0 3 10
- 0.047829 12 13 cbr 3000 ------- 0 1.1 13.0 3 10
+ 0.048 1 12 cbr 3000 ------- 0 1.1 13.0 10 32
- 0.048 1 12 cbr 3000 ------- 0 1.1 13.0 10 32
+ 0.048 1 2 cbr 3000 ------- 0 1.2 3.0 10 33
- 0.048 1 2 cbr 3000 ------- 0 1.2 3.0 10 33
- 0.048 1 0 cbr 3000 ------- 0 1.0 0.0 10 28
+ 0.048 1 0 cbr 3000 ------- 0 1.0 0.0 12 34
r 0.0488 1 2 cbr 3000 ------- 0 1.2 3.0 5 17
+ 0.0488 2 3 cbr 3000 ------- 0 1.2 3.0 5 17
- 0.0488 2 3 cbr 3000 ------- 0 1.2 3.0 5 17
r 0.0488 1 0 cbr 3000 ------- 0 1.0 0.0 5 15
+ 0.052 1 0 cbr 3000 ------- 0 1.0 0.0 13 35
r 0.052629 1 12 cbr 3000 ------- 0 1.1 13.0 4 13
+ 0.052629 12 13 cbr 3000 ------- 0 1.1 13.0 4 13
- 0.052629 12 13 cbr 3000 ------- 0 1.1 13.0 4 13
+ 0.0528 1 12 cbr 3000 ------- 0 1.1 13.0 11 36
- 0.0528 1 12 cbr 3000 ------- 0 1.1 13.0 11 36
+ 0.0528 1 2 cbr 3000 ------- 0 1.2 3.0 11 37
- 0.0528 1 2 cbr 3000 ------- 0 1.2 3.0 11 37
- 0.0528 1 0 cbr 3000 ------- 0 1.0 0.0 11 31
r 0.0536 1 2 cbr 3000 ------- 0 1.2 3.0 6 21
+ 0.0536 2 3 cbr 3000 ------- 0 1.2 3.0 6 21
- 0.0536 2 3 cbr 3000 ------- 0 1.2 3.0 6 21
r 0.0536 1 0 cbr 3000 ------- 0 1.0 0.0 6 18
+ 0.056 1 0 cbr 3000 ------- 0 1.0 0.0 14 38
r 0.057429 1 12 cbr 3000 ------- 0 1.1 13.0 5 16
+ 0.057429 12 13 cbr 3000 ------- 0 1.1 13.0 5 16
- 0.057429 12 13 cbr 3000 ------- 0 1.1 13.0 5 16
+ 0.0576 1 12 cbr 3000 ------- 0 1.1 13.0 12 39
- 0.0576 1 12 cbr 3000 ------- 0 1.1 13.0 12 39
+ 0.0576 1 2 cbr 3000 ------- 0 1.2 3.0 12 40
- 0.0576 1 2 cbr 3000 ------- 0 1.2 3.0 12 40
- 0.0576 1 0 cbr 3000 ------- 0 1.0 0.0 12 34
r 0.058229 2 3 cbr 3000 ------- 0 1.2 3.0 0 1
r 0.0584 1 2 cbr 3000 ------- 0 1.2 3.0 7 24
+ 0.0584 2 3 cbr 3000 ------- 0 1.2 3.0 7 24
- 0.0584 2 3 cbr 3000 ------- 0 1.2 3.0 7 24
r 0.0584 1 0 cbr 3000 ------- 0 1.0 0.0 7 19
+ 0.06 1 0 cbr 3000 ------- 0 1.0 0.0 15 41
r 0.062229 1 12 cbr 3000 ------- 0 1.1 13.0 6 20
+ 0.062229 12 13 cbr 3000 ------- 0 1.1 13.0 6 20
- 0.062229 12 13 cbr 3000 ------- 0 1.1 13.0 6 20
+ 0.0624 1 12 cbr 3000 ------- 0 1.1 13.0 13 42
- 0.0624 1 12 cbr 3000 ------- 0 1.1 13.0 13 42
+ 0.0624 1 2 cbr 3000 ------- 0 1.2 3.0 13 43
- 0.0624 1 2 cbr 3000 ------- 0 1.2 3.0 13 43
- 0.0624 1 0 cbr 3000 ------- 0 1.0 0.0 13 35
r 0.063029 2 3 cbr 3000 ------- 0 1.2 3.0 1 5
r 0.0632 1 2 cbr 3000 ------- 0 1.2 3.0 8 27
+ 0.0632 2 3 cbr 3000 ------- 0 1.2 3.0 8 27
- 0.0632 2 3 cbr 3000 ------- 0 1.2 3.0 8 27
r 0.0632 1 0 cbr 3000 ------- 0 1.0 0.0 8 22
+ 0.064 1 0 cbr 3000 ------- 0 1.0 0.0 16 44
r 0.066857 12 13 cbr 3000 ------- 0 1.1 13.0 0 0
r 0.067029 1 12 cbr 3000 ------- 0 1.1 13.0 7 23
+ 0.067029 12 13 cbr 3000 ------- 0 1.1 13.0 7 23
- 0.067029 12 13 cbr 3000 ------- 0 1.1 13.0 7 23
+ 0.0672 1 12 cbr 3000 ------- 0 1.1 13.0 14 45
- 0.0672 1 12 cbr 3000 ------- 0 1.1 13.0 14 45
+ 0.0672 1 2 cbr 3000 ------- 0 1.2 3.0 14 46
- 0.0672 1 2 cbr 3000 ------- 0 1.2 3.0 14 46
- 0.0672 1 0 cbr 3000 ------- 0 1.0 0.0 14 38
r 0.067829 2 3 cbr 3000 ------- 0 1.2 3.0 2 8
r 0.068 1 2 cbr 3000 ------- 0 1.2 3.0 9 30
+ 0.068 2 3 cbr 3000 ------- 0 1.2 3.0 9 30
- 0.068 2 3 cbr 3000 ------- 0 1.2 3.0 9 30
r 0.068 1 0 cbr 3000 ------- 0 1.0 0.0 9 25
+ 0.068 1 0 cbr 3000 ------- 0 1.0 0.0 17 47
r 0.071657 12 13 cbr 3000 ------- 0 1.1 13.0 1 4
r 0.071829 1 12 cbr 3000 ------- 0 1.1 13.0 8 26
+ 0.071829 12 13 cbr 3000 ------- 0 1.1 13.0 8 26
- 0.071829 12 13 cbr 3000 ------- 0 1.1 13.0 8 26
+ 0.072 1 12 cbr 3000 ------- 0 1.1 13.0 15 48
- 0.072 1 12 cbr 3000 ------- 0 1.1 13.0 15 48
+ 0.072 1 2 cbr 3000 ------- 0 1.2 3.0 15 49
- 0.072 1 2 cbr 3000 ------- 0 1.2 3.0 15 49
- 0.072 1 0 cbr 3000 ------- 0 1.0 0.0 15 41
+ 0.072 1 0 cbr 3000 ------- 0 1.0 0.0 18 50
r 0.072629 2 3 cbr 3000 ------- 0 1.2 3.0 3 11
r 0.0728 1 2 cbr 3000 ------- 0 1.2 3.0 10 33
+ 0.0728 2 3 cbr 3000 ------- 0 1.2 3.0 10 33
- 0.0728 2 3 cbr 3000 ------- 0 1.2 3.0 10 33
r 0.0728 1 0 cbr 3000 ------- 0 1.0 0.0 10 28
+ 0.076 1 0 cbr 3000 ------- 0 1.0 0.0 19 51
r 0.076457 12 13 cbr 3000 ------- 0 1.1 13.0 2 7
r 0.076629 1 12 cbr 3000 ------- 0 1.1 13.0 9 29
+ 0.076629 12 13 cbr 3000 ------- 0 1.1 13.0 9 29
- 0.076629 12 13 cbr 3000 ------- 0 1.1 13.0 9 29
+ 0.0768 1 12 cbr 3000 ------- 0 1.1 13.0 16 52
- 0.0768 1 12 cbr 3000 ------- 0 1.1 13.0 16 52
+ 0.0768 1 2 cbr 3000 ------- 0 1.2 3.0 16 53
- 0.0768 1 2 cbr 3000 ------- 0 1.2 3.0 16 53
- 0.0768 1 0 cbr 3000 ------- 0 1.0 0.0 16 44
r 0.077429 2 3 cbr 3000 ------- 0 1.2 3.0 4 14
r 0.0776 1 2 cbr 3000 ------- 0 1.2 3.0 11 37
+ 0.0776 2 3 cbr 3000 ------- 0 1.2 3.0 11 37
- 0.0776 2 3 cbr 3000 ------- 0 1.2 3.0 11 37
r 0.0776 1 0 cbr 3000 ------- 0 1.0 0.0 11 31
+ 0.08 1 0 cbr 3000 ------- 0 1.0 0.0 20 54
r 0.081257 12 13 cbr 3000 ------- 0 1.1 13.0 3 10
r 0.081429 1 12 cbr 3000 ------- 0 1.1 13.0 10 32
+ 0.081429 12 13 cbr 3000 ------- 0 1.1 13.0 10 32
- 0.081429 12 13 cbr 3000 ------- 0 1.1 13.0 10 32
+ 0.0816 1 12 cbr 3000 ------- 0 1.1 13.0 17 55
- 0.0816 1 12 cbr 3000 ------- 0 1.1 13.0 17 55
+ 0.0816 1 2 cbr 3000 ------- 0 1.2 3.0 17 56
- 0.0816 1 2 cbr 3000 ------- 0 1.2 3.0 17 56
- 0.0816 1 0 cbr 3000 ------- 0 1.0 0.0 17 47
r 0.082229 2 3 cbr 3000 ------- 0 1.2 3.0 5 17
r 0.0824 1 2 cbr 3000 ------- 0 1.2 3.0 12 40
+ 0.0824 2 3 cbr 3000 ------- 0 1.2 3.0 12 40
- 0.0824 2 3 cbr 3000 ------- 0 1.2 3.0 12 40
r 0.0824 1 0 cbr 3000 ------- 0 1.0 0.0 12 34
+ 0.084 1 0 cbr 3000 ------- 0 1.0 0.0 21 57
r 0.086057 12 13 cbr 3000 ------- 0 1.1 13.0 4 13
r 0.086229 1 12 cbr 3000 ------- 0 1.1 13.0 11 36
+ 0.086229 12 13 cbr 3000 ------- 0 1.1 13.0 11 36
- 0.086229 12 13 cbr 3000 ------- 0 1.1 13.0 11 36
+ 0.0864 1 12 cbr 3000 ------- 0 1.1 13.0 18 58
- 0.0864 1 12 cbr 3000 ------- 0 1.1 13.0 18 58
+ 0.0864 1 2 cbr 3000 ------- 0 1.2 3.0 18 59
- 0.0864 1 2 cbr 3000 ------- 0 1.2 3.0 18 59
- 0.0864 1 0 cbr 3000 ------- 0 1.0 0.0 18 50
r 0.087029 2 3 cbr 3000 ------- 0 1.2 3.0 6 21
r 0.0872 1 2 cbr 3000 ------- 0 1.2 3.0 13 43
+ 0.0872 2 3 cbr 3000 ------- 0 1.2 3.0 13 43
- 0.0872 2 3 cbr 3000 ------- 0 1.2 3.0 13 43
r 0.0872 1 0 cbr 3000 ------- 0 1.0 0.0 13 35
+ 0.088 1 0 cbr 3000 ------- 0 1.0 0.0 22 60
r 0.090857 12 13 cbr 3000 ------- 0 1.1 13.0 5 16
r 0.091029 1 12 cbr 3000 ------- 0 1.1 13.0 12 39
+ 0.091029 12 13 cbr 3000 ------- 0 1.1 13.0 12 39
- 0.091029 12 13 cbr 3000 ------- 0 1.1 13.0 12 39
+ 0.0912 1 12 cbr 3000 ------- 0 1.1 13.0 19 61
- 0.0912 1 12 cbr 3000 ------- 0 1.1 13.0 19 61
+ 0.0912 1 2 cbr 3000 ------- 0 1.2 3.0 19 62
- 0.0912 1 2 cbr 3000 ------- 0 1.2 3.0 19 62
- 0.0912 1 0 cbr 3000 ------- 0 1.0 0.0 19 51
r 0.091829 2 3 cbr 3000 ------- 0 1.2 3.0 7 24
r 0.092 1 2 cbr 3000 ------- 0 1.2 3.0 14 46
+ 0.092 2 3 cbr 3000 ------- 0 1.2 3.0 14 46
- 0.092 2 3 cbr 3000 ------- 0 1.2 3.0 14 46
r 0.092 1 0 cbr 3000 ------- 0 1.0 0.0 14 38
+ 0.092 1 0 cbr 3000 ------- 0 1.0 0.0 23 63
r 0.095657 12 13 cbr 3000 ------- 0 1.1 13.0 6 20
r 0.095829 1 12 cbr 3000 ------- 0 1.1 13.0 13 42
+ 0.095829 12 13 cbr 3000 ------- 0 1.1 13.0 13 42
- 0.095829 12 13 cbr 3000 ------- 0 1.1 13.0 13 42
+ 0.096 1 12 cbr 3000 ------- 0 1.1 13.0 20 64
- 0.096 1 12 cbr 3000 ------- 0 1.1 13.0 20 64
+ 0.096 1 2 cbr 3000 ------- 0 1.2 3.0 20 65
- 0.096 1 2 cbr 3000 ------- 0 1.2 3.0 20 65
- 0.096 1 0 cbr 3000 ------- 0 1.0 0.0 20 54
+ 0.096 1 0 cbr 3000 ------- 0 1.0 0.0 24 66
r 0.096629 2 3 cbr 3000 ------- 0 1.2 3.0 8 27
r 0.0968 1 2 cbr 3000 ------- 0 1.2 3.0 15 49
+ 0.0968 2 3 cbr 3000 ------- 0 1.2 3.0 15 49
- 0.0968 2 3 cbr 3000 ------- 0 1.2 3.0 15 49
r 0.0968 1 0 cbr 3000 ------- 0 1.0 0.0 15 41
+ 0.1 1 0 cbr 3000 ------- 0 1.0 0.0 25 67
r 0.100457 12 13 cbr 3000 ------- 0 1.1 13.0 7 23
r 0.100629 1 12 cbr 3000 ------- 0 1.1 13.0 14 45
+ 0.100629 12 13 cbr 3000 ------- 0 1.1 13.0 14 45
- 0.100629 12 13 cbr 3000 ------- 0 1.1 13.0 14 45
+ 0.1008 1 12 cbr 3000 ------- 0 1.1 13.0 21 68
- 0.1008 1 12 cbr 3000 ------- 0 1.1 13.0 21 68
+ 0.1008 1 2 cbr 3000 ------- 0 1.2 3.0 21 69
- 0.1008 1 2 cbr 3000 ------- 0 1.2 3.0 21 69
- 0.1008 1 0 cbr 3000 ------- 0 1.0 0.0 21 57
r 0.101429 2 3 cbr 3000 ------- 0 1.2 3.0 9 30
r 0.1016 1 2 cbr 3000 ------- 0 1.2 3.0 16 53
+ 0.1016 2 3 cbr 3000 ------- 0 1.2 3.0 16 53
- 0.1016 2 3 cbr 3000 ------- 0 1.2 3.0 16 53
r 0.1016 1 0 cbr 3000 ------- 0 1.0 0.0 16 44
+ 0.104 1 0 cbr 3000 ------- 0 1.0 0.0 26 70
r 0.105257 12 13 cbr 3000 ------- 0 1.1 13.0 8 26
r 0.105429 1 12 cbr 3000 ------- 0 1.1 13.0 15 48
+ 0.105429 12 13 cbr 3000 ------- 0 1.1 13.0 15 48
- 0.105429 12 13 cbr 3000 ------- 0 1.1 13.0 15 48
+ 0.1056 1 12 cbr 3000 ------- 0 1.1 13.0 22 71
- 0.1056 1 12 cbr 3000 ------- 0 1.1 13.0 22 71
+ 0.1056 1 2 cbr 3000 ------- 0 1.2 3.0 22 72
- 0.1056 1 2 cbr 3000 ------- 0 1.2 3.0 22 72
- 0.1056 1 0 cbr 3000 ------- 0 1.0 0.0 22 60
r 0.106229 2 3 cbr 3000 ------- 0 1.2 3.0 10 33
r 0.1064 1 2 cbr 3000 ------- 0 1.2 3.0 17 56
+ 0.1064 2 3 cbr 3000 ------- 0 1.2 3.0 17 56
- 0.1064 2 3 cbr 3000 ------- 0 1.2 3.0 17 56
r 0.1064 1 0 cbr 3000 ------- 0 1.0 0.0 17 47
+ 0.108 1 0 cbr 3000 ------- 0 1.0 0.0 27 73
r 0.110057 12 13 cbr 3000 ------- 0 1.1 13.0 9 29
r 0.110229 1 12 cbr 3000 ------- 0 1.1 13.0 16 52
+ 0.110229 12 13 cbr 3000 ------- 0 1.1 13.0 16 52
- 0.110229 12 13 cbr 3000 ------- 0 1.1 13.0 16 52
+ 0.1104 1 12 cbr 3000 ------- 0 1.1 13.0 23 74
- 0.1104 1 12 cbr 3000 ------- 0 1.1 13.0 23 74
+ 0.1104 1 2 cbr 3000 ------- 0 1.2 3.0 23 75
- 0.1104 1 2 cbr 3000 ------- 0 1.2 3.0 23 75
- 0.1104 1 0 cbr 3000 ------- 0 1.0 0.0 23 63
r 0.111029 2 3 cbr 3000 ------- 0 1.2 3.0 11 37
r 0.1112 1 2 cbr 3000 ------- 0 1.2 3.0 18 59
+ 0.1112 2 3 cbr 3000 ------- 0 1.2 3.0 18 59
- 0.1112 2 3 cbr 3000 ------- 0 1.2 3.0 18 59
r 0.1112 1 0 cbr 3000 ------- 0 1.0 0.0 18 50
+ 0.112 1 0 cbr 3000 ------- 0 1.0 0.0 28 76
r 0.114857 12 13 cbr 3000 ------- 0 1.1 13.0 10 32
r 0.115029 1 12 cbr 3000 ------- 0 1.1 13.0 17 55
+ 0.115029 12 13 cbr 3000 ------- 0 1.1 13.0 17 55
- 0.115029 12 13 cbr 3000 ------- 0 1.1 13.0 17 55
+ 0.1152 1 12 cbr 3000 ------- 0 1.1 13.0 24 77
- 0.1152 1 12 cbr 3000 ------- 0 1.1 13.0 24 77
+ 0.1152 1 2 cbr 3000 ------- 0 1.2 3.0 24 78
- 0.1152 1 2 cbr 3000 ------- 0 1.2 3.0 24 78
- 0.1152 1 0 cbr 3000 ------- 0 1.0 0.0 24 66
r 0.115829 2 3 cbr 3000 ------- 0 1.2 3.0 12 40
r 0.116 1 2 cbr 3000 ------- 0 1.2 3.0 19 62
+ 0.116 2 3 cbr 3000 ------- 0 1.2 3.0 19 62
- 0.116 2 3 cbr 3000 ------- 0 1.2 3.0 19 62
r 0.116 1 0 cbr 3000 ------- 0 1.0 0.0 19 51
+ 0.116 1 0 cbr 3000 ------- 0 1.0 0.0 29 79
r 0.119657 12 13 cbr 3000 ------- 0 1.1 13.0 11 36
r 0.119829 1 12 cbr 3000 ------- 0 1.1 13.0 18 58
+ 0.119829 12 13 cbr 3000 ------- 0 1.1 13.0 18 58
- 0.119829 12 13 cbr 3000 ------- 0 1.1 13.0 18 58
+ 0.12 1 12 cbr 3000 ------- 0 1.1 13.0 25 80
- 0.12 1 12 cbr 3000 ------- 0 1.1 13.0 25 80
+ 0.12 1 2 cbr 3000 ------- 0 1.2 3.0 25 81
- 0.12 1 2 cbr 3000 ------- 0 1.2 3.0 25 81
- 0.12 1 0 cbr 3000 ------- 0 1.0 0.0 25 67
+ 0.12 1 0 cbr 3000 ------- 0 1.0 0.0 30 82
r 0.120629 2 3 cbr 3000 ------- 0 1.2 3.0 13 43
r 0.1208 1 2 cbr 3000 ------- 0 1.2 3.0 20 65
+ 0.1208 2 3 cbr 3000 ------- 0 1.2 3.0 20 65
- 0.1208 2 3 cbr 3000 ------- 0 1.2 3.0 20 65
r 0.1208 1 0 cbr 3000 ------- 0 1.0 0.0 20 54
+ 0.124 1 0 cbr 3000 ------- 0 1.0 0.0 31 83
r 0.124457 12 13 cbr 3000 ------- 0 1.1 13.0 12 39
r 0.124629 1 12 cbr 3000 ------- 0 1.1 13.0 19 61
+ 0.124629 12 13 cbr 3000 ------- 0 1.1 13.0 19 61
- 0.124629 12 13 cbr 3000 ------- 0 1.1 13.0 19 61
+ 0.1248 1 12 cbr 3000 ------- 0 1.1 13.0 26 84
- 0.1248 1 12 cbr 3000 ------- 0 1.1 13.0 26 84
+ 0.1248 1 2 cbr 3000 ------- 0 1.2 3.0 26 85
- 0.1248 1 2 cbr 3000 ------- 0 1.2 3.0 26 85
- 0.1248 1 0 cbr 3000 ------- 0 1.0 0.0 26 70
r 0.125429 2 3 cbr 3000 ------- 0 1.2 3.0 14 46
r 0.1256 1 2 cbr 3000 ------- 0 1.2 3.0 21 69
+ 0.1256 2 3 cbr 3000 ------- 0 1.2 3.0 21 69
- 0.1256 2 3 cbr 3000 ------- 0 1.2 3.0 21 69
r 0.1256 1 0 cbr 3000 ------- 0 1.0 0.0 21 57
+ 0.128 1 0 cbr 3000 ------- 0 1.0 0.0 32 86
r 0.129257 12 13 cbr 3000 ------- 0 1.1 13.0 13 42
r 0.129429 1 12 cbr 3000 ------- 0 1.1 13.0 20 64
+ 0.129429 12 13 cbr 3000 ------- 0 1.1 13.0 20 64
- 0.129429 12 13 cbr 3000 ------- 0 1.1 13.0 20 64
+ 0.1296 1 12 cbr 3000 ------- 0 1.1 13.0 27 87
- 0.1296 1 12 cbr 3000 ------- 0 1.1 13.0 27 87
+ 0.1296 1 2 cbr 3000 ------- 0 1.2 3.0 27 88
- 0.1296 1 2 cbr 3000 ------- 0 1.2 3.0 27 88
- 0.1296 1 0 cbr 3000 ------- 0 1.0 0.0 27 73
r 0.130229 2 3 cbr 3000 ------- 0 1.2 3.0 15 49
r 0.1304 1 2 cbr 3000 ------- 0 1.2 3.0 22 72
+ 0.1304 2 3 cbr 3000 ------- 0 1.2 3.0 22 72
- 0.1304 2 3 cbr 3000 ------- 0 1.2 3.0 22 72
r 0.1304 1 0 cbr 3000 ------- 0 1.0 0.0 22 60
+ 0.132 1 0 cbr 3000 ------- 0 1.0 0.0 33 89
r 0.134057 12 13 cbr 3000 ------- 0 1.1 13.0 14 45
r 0.134229 1 12 cbr 3000 ------- 0 1.1 13.0 21 68
+ 0.134229 12 13 cbr 3000 ------- 0 1.1 13.0 21 68
- 0.134229 12 13 cbr 3000 ------- 0 1.1 13.0 21 68
+ 0.1344 1 12 cbr 3000 ------- 0 1.1 13.0 28 90
- 0.1344 1 12 cbr 3000 ------- 0 1.1 13.0 28 90
+ 0.1344 1 2 cbr 3000 ------- 0 1.2 3.0 28 91
- 0.1344 1 2 cbr 3000 ------- 0 1.2 3.0 28 91
- 0.1344 1 0 cbr 3000 ------- 0 1.0 0.0 28 76
r 0.135029 2 3 cbr 3000 ------- 0 1.2 3.0 16 53
r 0.1352 1 2 cbr 3000 ------- 0 1.2 3.0 23 75
+ 0.1352 2 3 cbr 3000 ------- 0 1.2 3.0 23 75
- 0.1352 2 3 cbr 3000 ------- 0 1.2 3.0 23 75
r 0.1352 1 0 cbr 3000 ------- 0 1.0 0.0 23 63
+ 0.136 1 0 cbr 3000 ------- 0 1.0 0.0 34 92
r 0.138857 12 13 cbr 3000 ------- 0 1.1 13.0 15 48
r 0.139029 1 12 cbr 3000 ------- 0 1.1 13.0 22 71
+ 0.139029 12 13 cbr 3000 ------- 0 1.1 13.0 22 71
- 0.139029 12 13 cbr 3000 ------- 0 1.1 13.0 22 71
+ 0.1392 1 12 cbr 3000 ------- 0 1.1 13.0 29 93
- 0.1392 1 12 cbr 3000 ------- 0 1.1 13.0 29 93
+ 0.1392 1 2 cbr 3000 ------- 0 1.2 3.0 29 94
- 0.1392 1 2 cbr 3000 ------- 0 1.2 3.0 29 94
- 0.1392 1 0 cbr 3000 ------- 0 1.0 0.0 29 79
r 0.139829 2 3 cbr 3000 ------- 0 1.2 3.0 17 56
r 0.14 1 2 cbr 3000 ------- 0 1.2 3.0 24 78
+ 0.14 2 3 cbr 3000 ------- 0 1.2 3.0 24 78
- 0.14 2 3 cbr 3000 ------- 0 1.2 3.0 24 78
r 0.14 1 0 cbr 3000 ------- 0 1.0 0.0 24 66
+ 0.14 1 0 cbr 3000 ------- 0 1.0 0.0 35 95
r 0.143657 12 13 cbr 3000 ------- 0 1.1 13.0 16 52
r 0.143829 1 12 cbr 3000 ------- 0 1.1 13.0 23 74
+ 0.143829 12 13 cbr 3000 ------- 0 1.1 13.0 23 74
- 0.143829 12 13 cbr 3000 ------- 0 1.1 13.0 23 74
+ 0.144 1 12 cbr 3000 ------- 0 1.1 13.0 30 96
- 0.144 1 12 cbr 3000 ------- 0 1.1 13.0 30 96
+ 0.144 1 2 cbr 3000 ------- 0 1.2 3.0 30 97
- 0.144 1 2 cbr 3000 ------- 0 1.2 3.0 30 97
- 0.144 1 0 cbr 3000 ------- 0 1.0 0.0 30 82
+ 0.144 1 0 cbr 3000 ------- 0 1.0 0.0 36 98
r 0.144629 2 3 cbr 3000 ------- 0 1.2 3.0 18 59
r 0.1448 1 2 cbr 3000 ------- 0 1.2 3.0 25 81
+ 0.1448 2 3 cbr 3000 ------- 0 1.2 3.0 25 81
- 0.1448 2 3 cbr 3000 ------- 0 1.2 3.0 25 81
r 0.1448 1 0 cbr 3000 ------- 0 1.0 0.0 25 67
+ 0.148 1 0 cbr 3000 ------- 0 1.0 0.0 37 99
r 0.148457 12 13 cbr 3000 ------- 0 1.1 13.0 17 55
r 0.148629 1 12 cbr 3000 ------- 0 1.1 13.0 24 77
+ 0.148629 12 13 cbr 3000 ------- 0 1.1 13.0 24 77
- 0.148629 12 13 cbr 3000 ------- 0 1.1 13.0 24 77
+ 0.1488 1 12 cbr 3000 ------- 0 1.1 13.0 31 100
- 0.1488 1 12 cbr 3000 ------- 0 1.1 13.0 31 100
+ 0.1488 1 2 cbr 3000 ------- 0 1.2 3.0 31 101
- 0.1488 1 2 cbr 3000 ------- 0 1.2 3.0 31 101
- 0.1488 1 0 cbr 3000 ------- 0 1.0 0.0 31 83
r 0.149429 2 3 cbr 3000 ------- 0 1.2 3.0 19 62
r 0.1496 1 2 cbr 3000 ------- 0 1.2 3.0 26 85
+ 0.1496 2 3 cbr 3000 ------- 0 1.2 3.0 26 85
- 0.1496 2 3 cbr 3000 ------- 0 1.2 3.0 26 85
r 0.1496 1 0 cbr 3000 ------- 0 1.0 0.0 26 70
+ 0.152 1 0 cbr 3000 ------- 0 1.0 0.0 38 102
r 0.153257 12 13 cbr 3000 ------- 0 1.1 13.0 18 58
r 0.153429 1 12 cbr 3000 ------- 0 1.1 13.0 25 80
+ 0.153429 12 13 cbr 3000 ------- 0 1.1 13.0 25 80
- 0.153429 12 13 cbr 3000 ------- 0 1.1 13.0 25 80
+ 0.1536 1 12 cbr 3000 ------- 0 1.1 13.0 32 103
- 0.1536 1 12 cbr 3000 ------- 0 1.1 13.0 32 103
+ 0.1536 1 2 cbr 3000 ------- 0 1.2 3.0 32 104
- 0.1536 1 2 cbr 3000 ------- 0 1.2 3.0 32 104
- 0.1536 1 0 cbr 3000 ------- 0 1.0 0.0 32 86
r 0.154229 2 3 cbr 3000 ------- 0 1.2 3.0 20 65
r 0.1544 1 2 cbr 3000 ------- 0 1.2 3.0 27 88
+ 0.1544 2 3 cbr 3000 ------- 0 1.2 3.0 27 88
- 0.1544 2 3 cbr 3000 ------- 0 1.2 3.0 27 88
r 0.1544 1 0 cbr 3000 ------- 0 1.0 0.0 27 73
+ 0.156 1 0 cbr 3000 ------- 0 1.0 0.0 39 105
r 0.158057 12 13 cbr 3000 ------- 0 1.1 13.0 19 61
r 0.158229 1 12 cbr 3000 ------- 0 1.1 13.0 26 84
+ 0.158229 12 13 cbr 3000 ------- 0 1.1 13.0 26 84
- 0.158229 12 13 cbr 3000 ------- 0 1.1 13.0 26 84
+ 0.1584 1 12 cbr 3000 ------- 0 1.1 13.0 33 106
- 0.1584 1 12 cbr 3000 ------- 0 1.1 13.0 33 106
+ 0.1584 1 2 cbr 3000 ------- 0 1.2 3.0 33 107
- 0.1584 1 2 cbr 3000 ------- 0 1.2 3.0 33 107
- 0.1584 1 0 cbr 3000 ------- 0 1.0 0.0 33 89
r 0.159029 2 3 cbr 3000 ------- 0 1.2 3.0 21 69
r 0.1592 1 2 cbr 3000 ------- 0 1.2 3.0 28 91
+ 0.1592 2 3 cbr 3000 ------- 0 1.2 3.0 28 91
- 0.1592 2 3 cbr 3000 ------- 0 1.2 3.0 28 91
r 0.1592 1 0 cbr 3000 ------- 0 1.0 0.0 28 76
+ 0.16 1 0 cbr 3000 ------- 0 1.0 0.0 40 108
r 0.162857 12 13 cbr 3000 ------- 0 1.1 13.0 20 64
r 0.163029 1 12 cbr 3000 ------- 0 1.1 13.0 27 87
+ 0.163029 12 13 cbr 3000 ------- 0 1.1 13.0 27 87
- 0.163029 12 13 cbr 3000 ------- 0 1.1 13.0 27 87
+ 0.1632 1 12 cbr 3000 ------- 0 1.1 13.0 34 109
- 0.1632 1 12 cbr 3000 ------- 0 1.1 13.0 34 109
+ 0.1632 1 2 cbr 3000 ------- 0 1.2 3.0 34 110
- 0.1632 1 2 cbr 3000 ------- 0 1.2 3.0 34 110
- 0.1632 1 0 cbr 3000 ------- 0 1.0 0.0 34 92
r 0.163829 2 3 cbr 3000 ------- 0 1.2 3.0 22 72
r 0.164 1 2 cbr 3000 ------- 0 1.2 3.0 29 94
+ 0.164 2 3 cbr 3000 ------- 0 1.2 3.0 29 94
- 0.164 2 3 cbr 3000 ------- 0 1.2 3.0 29 94
r 0.164 1 0 cbr 3000 ------- 0 1.0 0.0 29 79
+ 0.164 1 0 cbr 3000 ------- 0 1.0 0.0 41 111
r 0.167657 12 13 cbr 3000 ------- 0 1.1 13.0 21 68
r 0.167829 1 12 cbr 3000 ------- 0 1.1 13.0 28 90
+ 0.167829 12 13 cbr 3000 ------- 0 1.1 13.0 28 90
- 0.167829 12 13 cbr 3000 ------- 0 1.1 13.0 28 90
+ 0.168 1 12 cbr 3000 ------- 0 1.1 13.0 35 112
- 0.168 1 12 cbr 3000 ------- 0 1.1 13.0 35 112
+ 0.168 1 2 cbr 3000 ------- 0 1.2 3.0 35 113
- 0.168 1 2 cbr 3000 ------- 0 1.2 3.0 35 113
- 0.168 1 0 cbr 3000 ------- 0 1.0 0.0 35 95
+ 0.168 1 0 cbr 3000 ------- 0 1.0 0.0 42 114
r 0.168629 2 3 cbr 3000 ------- 0 1.2 3.0 23 75
r 0.1688 1 2 cbr 3000 ------- 0 1.2 3.0 30 97
+ 0.1688 2 3 cbr 3000 ------- 0 1.2 3.0 30 97
- 0.1688 2 3 cbr 3000 ------- 0 1.2 3.0 30 97
r 0.1688 1 0 cbr 3000 ------- 0 1.0 0.0 30 82
+ 0.172 1 0 cbr 3000 ------- 0 1.0 0.0 43 115
r 0.172457 12 13 cbr 3000 ------- 0 1.1 13.0 22 71
r 0.172629 1 12 cbr 3000 ------- 0 1.1 13.0 29 93
+ 0.172629 12 13 cbr 3000 ------- 0 1.1 13.0 29 93
- 0.172629 12 13 cbr 3000 ------- 0 1.1 13.0 29 93
+ 0.1728 1 12 cbr 3000 ------- 0 1.1 13.0 36 116
- 0.1728 1 12 cbr 3000 ------- 0 1.1 13.0 36 116
+ 0.1728 1 2 cbr 3000 ------- 0 1.2 3.0 36 117
- 0.1728 1 2 cbr 3000 ------- 0 1.2 3.0 36 117
- 0.1728 1 0 cbr 3000 ------- 0 1.0 0.0 36 98
r 0.173429 2 3 cbr 3000 ------- 0 1.2 3.0 24 78
r 0.1736 1 2 cbr 3000 ------- 0 1.2 3.0 31 101
+ 0.1736 2 3 cbr 3000 ------- 0 1.2 3.0 31 101
- 0.1736 2 3 cbr 3000 ------- 0 1.2 3.0 31 101
r 0.1736 1 0 cbr 3000 ------- 0 1.0 0.0 31 83
+ 0.176 1 0 cbr 3000 ------- 0 1.0 0.0 44 118
r 0.177257 12 13 cbr 3000 ------- 0 1.1 13.0 23 74
r 0.177429 1 12 cbr 3000 ------- 0 1.1 13.0 30 96
+ 0.177429 12 13 cbr 3000 ------- 0 1.1 13.0 30 96
- 0.177429 12 13 cbr 3000 ------- 0 1.1 13.0 30 96
+ 0.1776 1 12 cbr 3000 ------- 0 1.1 13.0 37 119
- 0.1776 1 12 cbr 3000 ------- 0 1.1 13.0 37 119
+ 0.1776 1 2 cbr 3000 ------- 0 1.2 3.0 37 120
- 0.1776 1 2 cbr 3000 ------- 0 1.2 3.0 37 120
- 0.1776 1 0 cbr 3000 ------- 0 1.0 0.0 37 99
r 0.178229 2 3 cbr 3000 ------- 0 1.2 3.0 25 81
r 0.1784 1 2 cbr 3000 ------- 0 1.2 3.0 32 104
+ 0.1784 2 3 cbr 3000 ------- 0 1.2 3.0 32 104
- 0.1784 2 3 cbr 3000 ------- 0 1.2 3.0 32 104
r 0.1784 1 0 cbr 3000 ------- 0 1.0 0.0 32 86
+ 0.18 1 0 cbr 3000 ------- 0 1.0 0.0 45 121
r 0.182057 12 13 cbr 3000 ------- 0 1.1 13.0 24 77
r 0.182229 1 12 cbr 3000 ------- 0 1.1 13.0 31 100
+ 0.182229 12 13 cbr 3000 ------- 0 1.1 13.0 31 100
- 0.182229 12 13 cbr 3000 ------- 0 1.1 13.0 31 100
+ 0.1824 1 12 cbr 3000 ------- 0 1.1 13.0 38 122
- 0.1824 1 12 cbr 3000 ------- 0 1.1 13.0 38 122
+ 0.1824 1 2 cbr 3000 ------- 0 1.2 3.0 38 123
- 0.1824 1 2 cbr 3000 ------- 0 1.2 3.0 38 123
- 0.1824 1 0 cbr 3000 ------- 0 1.0 0.0 38 102
r 0.183029 2 3 cbr 3000 ------- 0 1.2 3.0 26 85
r 0.1832 1 2 cbr 3000 ------- 0 1.2 3.0 33 107
+ 0.1832 2 3 cbr 3000 ------- 0 1.2 3.0 33 107
- 0.1832 2 3 cbr 3000 ------- 0 1.2 3.0 33 107
r 0.1832 1 0 cbr 3000 ------- 0 1.0 0.0 33 89
+ 0.184 1 0 cbr 3000 ------- 0 1.0 0.0 46 124
r 0.186857 12 13 cbr 3000 ------- 0 1.1 13.0 25 80
r 0.187029 1 12 cbr 3000 ------- 0 1.1 13.0 32 103
+ 0.187029 12 13 cbr 3000 ------- 0 1.1 13.0 32 103
- 0.187029 12 13 cbr 3000 ------- 0 1.1 13.0 32 103
+ 0.1872 1 12 cbr 3000 ------- 0 1.1 13.0 39 125
- 0.1872 1 12 cbr 3000 ------- 0 1.1 13.0 39 125
+ 0.1872 1 2 cbr 3000 ------- 0 1.2 3.0 39 126
- 0.1872 1 2 cbr 3000 ------- 0 1.2 3.0 39 126
- 0.1872 1 0 cbr 3000 ------- 0 1.0 0.0 39 105
r 0.187829 2 3 cbr 3000 ------- 0 1.2 3.0 27 88
r 0.188 1 2 cbr 3000 ------- 0 1.2 3.0 34 110
+ 0.188 2 3 cbr 3000 ------- 0 1.2 3.0 34 110
- 0.188 2 3 cbr 3000 ------- 0 1.2 3.0 34 110
r 0.188 1 0 cbr 3000 ------- 0 1.0 0.0 34 92
+ 0.188 1 0 cbr 3000 ------- 0 1.0 0.0 47 127
r 0.191657 12 13 cbr 3000 ------- 0 1.1 13.0 26 84
r 0.191829 1 12 cbr 3000 ------- 0 1.1 13.0 33 106
+ 0.191829 12 13 cbr 3000 ------- 0 1.1 13.0 33 106
- 0.191829 12 13 cbr 3000 ------- 0 1.1 13.0 33 106
+ 0.192 1 12 cbr 3000 ------- 0 1.1 13.0 40 128
- 0.192 1 12 cbr 3000 ------- 0 1.1 13.0 40 128
+ 0.192 1 2 cbr 3000 ------- 0 1.2 3.0 40 129
- 0.192 1 2 cbr 3000 ------- 0 1.2 3.0 40 129
- 0.192 1 0 cbr 3000 ------- 0 1.0 0.0 40 108
+ 0.192 1 0 cbr 3000 ------- 0 1.0 0.0 48 130
r 0.192629 2 3 cbr 3000 ------- 0 1.2 3.0 28 91
r 0.1928 1 2 cbr 3000 ------- 0 1.2 3.0 35 113
+ 0.1928 2 3 cbr 3000 ------- 0 1.2 3.0 35 113
- 0.1928 2 3 cbr 3000 ------- 0 1.2 3.0 35 113
r 0.1928 1 0 cbr 3000 ------- 0 1.0 0.0 35 95
+ 0.196 1 0 cbr 3000 ------- 0 1.0 0.0 49 131
r 0.196457 12 13 cbr 3000 ------- 0 1.1 13.0 27 87
r 0.196629 1 12 cbr 3000 ------- 0 1.1 13.0 34 109
+ 0.196629 12 13 cbr 3000 ------- 0 1.1 13.0 34 109
- 0.196629 12 13 cbr 3000 ------- 0 1.1 13.0 34 109
+ 0.1968 1 12 cbr 3000 ------- 0 1.1 13.0 41 132
- 0.1968 1 12 cbr 3000 ------- 0 1.1 13.0 41 132
+ 0.1968 1 2 cbr 3000 ------- 0 1.2 3.0 41 133
- 0.1968 1 2 cbr 3000 ------- 0 1.2 3.0 41 133
- 0.1968 1 0 cbr 3000 ------- 0 1.0 0.0 41 111
r 0.197429 2 3 cbr 3000 ------- 0 1.2 3.0 29 94
r 0.1976 1 2 cbr 3000 ------- 0 1.2 3.0 36 117
+ 0.1976 2 3 cbr 3000 ------- 0 1.2 3.0 36 117
- 0.1976 2 3 cbr 3000 ------- 0 1.2 3.0 36 117
r 0.1976 1 0 cbr 3000 ------- 0 1.0 0.0 36 98
+ 0.2 1 0 cbr 3000 ------- 0 1.0 0.0 50 134
r 0.201257 12 13 cbr 3000 ------- 0 1.1 13.0 28 90
r 0.201429 1 12 cbr 3000 ------- 0 1.1 13.0 35 112
+ 0.201429 12 13 cbr 3000 ------- 0 1.1 13.0 35 112
- 0.201429 12 13 cbr 3000 ------- 0 1.1 13.0 35 112
+ 0.2016 1 12 cbr 3000 ------- 0 1.1 13.0 42 135
- 0.2016 1 12 cbr 3000 ------- 0 1.1 13.0 42 135
+ 0.2016 1 2 cbr 3000 ------- 0 1.2 3.0 42 136
- 0.2016 1 2 cbr 3000 ------- 0 1.2 3.0 42 136
- 0.2016 1 0 cbr 3000 ------- 0 1.0 0.0 42 114
r 0.202229 2 3 cbr 3000 ------- 0 1.2 3.0 30 97
r 0.2024 1 2 cbr 3000 ------- 0 1.2 3.0 37 120
+ 0.2024 2 3 cbr 3000 ------- 0 1.2 3.0 37 120
- 0.2024 2 3 cbr 3000 ------- 0 1.2 3.0 37 120
r 0.2024 1 0 cbr 3000 ------- 0 1.0 0.0 37 99
+ 0.204 1 0 cbr 3000 ------- 0 1.0 0.0 51 137
r 0.206057 12 13 cbr 3000 ------- 0 1.1 13.0 29 93
r 0.206229 1 12 cbr 3000 ------- 0 1.1 13.0 36 116
+ 0.206229 12 13 cbr 3000 ------- 0 1.1 13.0 36 116
- 0.206229 12 13 cbr 3000 ------- 0 1.1 13.0 36 116
+ 0.2064 1 12 cbr 3000 ------- 0 1.1 13.0 43 138
- 0.2064 1 12 cbr 3000 ------- 0 1.1 13.0 43 138
+ 0.2064 1 2 cbr 3000 ------- 0 1.2 3.0 43 139
- 0.2064 1 2 cbr 3000 ------- 0 1.2 3.0 43 139
- 0.2064 1 0 cbr 3000 ------- 0 1.0 0.0 43 115
r 0.207029 2 3 cbr 3000 ------- 0 1.2 3.0 31 101
r 0.2072 1 2 cbr 3000 ------- 0 1.2 3.0 38 123
+ 0.2072 2 3 cbr 3000 ------- 0 1.2 3.0 38 123
- 0.2072 2 3 cbr 3000 ------- 0 1.2 3.0 38 123
r 0.2072 1 0 cbr 3000 ------- 0 1.0 0.0 38 102
+ 0.208 1 0 cbr 3000 ------- 0 1.0 0.0 52 140
r 0.210857 12 13 cbr 3000 ------- 0 1.1 13.0 30 96
r 0.211029 1 12 cbr 3000 ------- 0 1.1 13.0 37 119
+ 0.211029 12 13 cbr 3000 ------- 0 1.1 13.0 37 119
- 0.211029 12 13 cbr 3000 ------- 0 1.1 13.0 37 119
+ 0.2112 1 12 cbr 3000 ------- 0 1.1 13.0 44 141
- 0.2112 1 12 cbr 3000 ------- 0 1.1 13.0 44 141
+ 0.2112 1 2 cbr 3000 ------- 0 1.2 3.0 44 142
- 0.2112 1 2 cbr 3000 ------- 0 1.2 3.0 44 142
- 0.2112 1 0 cbr 3000 ------- 0 1.0 0.0 44 118
r 0.211829 2 3 cbr 3000 ------- 0 1.2 3.0 32 104
r 0.212 1 2 cbr 3000 ------- 0 1.2 3.0 39 126
+ 0.212 2 3 cbr 3000 ------- 0 1.2 3.0 39 126
- 0.212 2 3 cbr 3000 ------- 0 1.2 3.0 39 126
r 0.212 1 0 cbr 3000 ------- 0 1.0 0.0 39 105
+ 0.212 1 0 cbr 3000 ------- 0 1.0 0.0 53 143
r 0.215657 12 13 cbr 3000 ------- 0 1.1 13.0 31 100
r 0.215829 1 12 cbr 3000 ------- 0 1.1 13.0 38 122
+ 0.215829 12 13 cbr 3000 ------- 0 1.1 13.0 38 122
- 0.215829 12 13 cbr 3000 ------- 0 1.1 13.0 38 122
+ 0.216 1 12 cbr 3000 ------- 0 1.1 13.0 45 144
- 0.216 1 12 cbr 3000 ------- 0 1.1 13.0 45 144